 Entering Gaussian System, Link 0=g16
 Initial command:
 /trinity/shared/apps/ccipl/gaussian/g16-A03-has-16.9-p/g16/l1.exe "/scratch/IMN/latouche-c/AH_T0_M062x-153134/Gau-52102.inp" -scrdir="/scratch/IMN/latouche-c/AH_T0_M062x-153134/"
 Entering Link 1 = /trinity/shared/apps/ccipl/gaussian/g16-A03-has-16.9-p/g16/l1.exe PID=     52104.
  
 Copyright (c) 1988,1990,1992,1993,1995,1998,2003,2009,2016,
            Gaussian, Inc.  All Rights Reserved.
  
 This is part of the Gaussian(R) 16 program.  It is based on
 the Gaussian(R) 09 system (copyright 2009, Gaussian, Inc.),
 the Gaussian(R) 03 system (copyright 2003, Gaussian, Inc.),
 the Gaussian(R) 98 system (copyright 1998, Gaussian, Inc.),
 the Gaussian(R) 94 system (copyright 1995, Gaussian, Inc.),
 the Gaussian 92(TM) system (copyright 1992, Gaussian, Inc.),
 the Gaussian 90(TM) system (copyright 1990, Gaussian, Inc.),
 the Gaussian 88(TM) system (copyright 1988, Gaussian, Inc.),
 the Gaussian 86(TM) system (copyright 1986, Carnegie Mellon
 University), and the Gaussian 82(TM) system (copyright 1983,
 Carnegie Mellon University). Gaussian is a federally registered
 trademark of Gaussian, Inc.
  
 This software contains proprietary and confidential information,
 including trade secrets, belonging to Gaussian, Inc.
  
 This software is provided under written license and may be
 used, copied, transmitted, or stored only in accord with that
 written license.
  
 The following legend is applicable only to US Government
 contracts under FAR:
  
                    RESTRICTED RIGHTS LEGEND
  
 Use, reproduction and disclosure by the US Government is
 subject to restrictions as set forth in subparagraphs (a)
 and (c) of the Commercial Computer Software - Restricted
 Rights clause in FAR 52.227-19.
  
 Gaussian, Inc.
 340 Quinnipiac St., Bldg. 40, Wallingford CT 06492
  
  
 ---------------------------------------------------------------
 Warning -- This program may not be used in any manner that
 competes with the business of Gaussian, Inc. or will provide
 assistance to any competitor of Gaussian, Inc.  The licensee
 of this program is prohibited from giving any competitor of
 Gaussian, Inc. access to this program.  By using this program,
 the user acknowledges that Gaussian, Inc. is engaged in the
 business of creating and licensing software in the field of
 computational chemistry and represents and warrants to the
 licensee that it is not a competitor of Gaussian, Inc. and that
 it will not use this program in any manner prohibited above.
 ---------------------------------------------------------------
  

 Cite this work as:
 Gaussian 16, Revision A.03,
 M. J. Frisch, G. W. Trucks, H. B. Schlegel, G. E. Scuseria, 
 M. A. Robb, J. R. Cheeseman, G. Scalmani, V. Barone, 
 G. A. Petersson, H. Nakatsuji, X. Li, M. Caricato, A. V. Marenich, 
 J. Bloino, B. G. Janesko, R. Gomperts, B. Mennucci, H. P. Hratchian, 
 J. V. Ortiz, A. F. Izmaylov, J. L. Sonnenberg, D. Williams-Young, 
 F. Ding, F. Lipparini, F. Egidi, J. Goings, B. Peng, A. Petrone, 
 T. Henderson, D. Ranasinghe, V. G. Zakrzewski, J. Gao, N. Rega, 
 G. Zheng, W. Liang, M. Hada, M. Ehara, K. Toyota, R. Fukuda, 
 J. Hasegawa, M. Ishida, T. Nakajima, Y. Honda, O. Kitao, H. Nakai, 
 T. Vreven, K. Throssell, J. A. Montgomery, Jr., J. E. Peralta, 
 F. Ogliaro, M. J. Bearpark, J. J. Heyd, E. N. Brothers, K. N. Kudin, 
 V. N. Staroverov, T. A. Keith, R. Kobayashi, J. Normand, 
 K. Raghavachari, A. P. Rendell, J. C. Burant, S. S. Iyengar, 
 J. Tomasi, M. Cossi, J. M. Millam, M. Klene, C. Adamo, R. Cammi, 
 J. W. Ochterski, R. L. Martin, K. Morokuma, O. Farkas, 
 J. B. Foresman, and D. J. Fox, Gaussian, Inc., Wallingford CT, 2016.
 
 ******************************************
 Gaussian 16:  ES64L-G16RevA.03 25-Dec-2016
                20-Sep-2023 
 ******************************************
 %mem=8GB
 %NProcShared=4
 Will use up to    4 processors via shared memory.
 %oldchk=/home/IMN/latouche-c/meven/vibro/comp-opt-M062x-FREQ.chk
 %chk=AH_T0_M062x.chk
 Copying data from "/home/IMN/latouche-c/meven/vibro/comp-opt-M062x-FREQ.chk" to current chk file "AH_T0_M062x.chk"
 IOpt=  2 FromEx=T IUOpen= 4 IOptOp= 5 NList=   0 IFRang= 0 IUIn= 4 IUOut= 2.
 ----------------------------------------------------------------------
 #p M062X/chkbasis guess=read Freq(ReadFC,FC,ReadFCHT) Geom=allCheck No
 symm
 ----------------------------------------------------------------------
 1/29=7,38=1,172=1/1;
 2/12=2,15=1,40=1/2;
 7/8=1,25=11,30=1,71=10,121=1/16,18;
 99/5=5/99;
 Leave Link    1 at Wed Sep 20 15:31:46 2023, MaxMem=  1073741824 cpu:               5.0 elap:               2.0
 (Enter /trinity/shared/apps/ccipl/gaussian/g16-A03-has-16.9-p/g16/l101.exe)
 Structure from the checkpoint file:  "AH_T0_M062x.chk"
 -----
 Meven
 -----
 Charge =  0 Multiplicity = 1
 No Z-Matrix found in chk file; cartesian coordinates used.
  C                                                -2.999804000000      1.501116000000      1.226475000000
  C                                                -3.636702000000      0.964428000000      0.126664000000
  C                                                -3.101342000000     -0.176429000000     -0.541696000000
  C                                                -1.902201000000     -0.738118000000     -0.041009000000
  C                                                -1.263810000000     -0.172242000000      1.086648000000
  C                                                -1.808637000000      0.928536000000      1.702751000000
  H                                                -4.631933000000     -0.327256000000     -2.053856000000
  H                                                -3.410787000000      2.368124000000      1.731331000000
  C                                                -3.715752000000     -0.761628000000     -1.674200000000
  C                                                -1.348616000000     -1.869912000000     -0.680309000000
  H                                                -1.302918000000      1.347179000000      2.564521000000
  C                                                -1.962970000000     -2.420538000000     -1.779484000000
  C                                                -3.155382000000     -1.860535000000     -2.278187000000
  H                                                -1.510935000000     -3.286654000000     -2.247771000000
  H                                                -3.630720000000     -2.301490000000     -3.145419000000
  C                                                -0.092022000000     -2.476425000000     -0.168995000000
  O                                                 0.413938000000     -3.447198000000     -0.685851000000
  C                                                -0.004484000000     -0.752063000000      1.612813000000
  O                                                 0.573852000000     -0.281309000000      2.567454000000
  N                                                 0.491845000000     -1.879895000000      0.951463000000
  C                                                 1.746368000000     -2.476246000000      1.437385000000
  H                                                 1.853632000000     -2.175986000000      2.478024000000
  H                                                 1.630027000000     -3.557482000000      1.378997000000
  C                                                 2.950309000000     -2.026392000000      0.612581000000
  H                                                 3.830672000000     -2.551599000000      0.998972000000
  H                                                 2.814299000000     -2.354019000000     -0.422259000000
  C                                                 3.185608000000     -0.518548000000      0.659640000000
  H                                                 3.302341000000     -0.199486000000      1.701429000000
  H                                                 2.307248000000      0.001222000000      0.267099000000
  C                                                 4.411615000000     -0.111386000000     -0.153863000000
  H                                                 5.298079000000     -0.613524000000      0.250788000000
  H                                                 4.306550000000     -0.433748000000     -1.193478000000
  C                                                 4.678095000000      1.387901000000     -0.134411000000
  H                                                 4.570678000000      1.761301000000      0.896890000000
  N                                                 5.991088000000      1.686619000000     -0.712874000000
  H                                                 6.182309000000      2.681738000000     -0.668496000000
  H                                                 6.713889000000      1.208560000000     -0.186674000000
  C                                                 3.651986000000      2.144900000000     -0.962136000000
  O                                                 2.723610000000      1.678830000000     -1.558559000000
  O                                                 3.915288000000      3.469233000000     -0.953691000000
  H                                                 3.257733000000      3.900727000000     -1.515477000000
  N                                                -4.834367000000      1.477157000000     -0.417273000000
  N                                                -5.311033000000      2.466600000000      0.148023000000
  N                                                -5.821421000000      3.360581000000      0.588739000000
 Recover connectivity data from disk.
 ITRead=  0  0  0  0  0  0  0  0  0  0  0  0  0  0  0  0  0  0  0  0
 ITRead=  0  0  0  0  0  0  0  0  0  0  0  0  0  0  0  0  0  0  0  0
 ITRead=  0  0  0  0
 MicOpt= -1 -1 -1 -1 -1 -1 -1 -1 -1 -1 -1 -1 -1 -1 -1 -1 -1 -1 -1 -1
 MicOpt= -1 -1 -1 -1 -1 -1 -1 -1 -1 -1 -1 -1 -1 -1 -1 -1 -1 -1 -1 -1
 MicOpt= -1 -1 -1 -1
 NAtoms=     44 NQM=       44 NQMF=       0 NMMI=      0 NMMIF=      0
                NMic=       0 NMicF=      0.
                    Isotopes and Nuclear Properties:
 (Nuclear quadrupole moments (NQMom) in fm**2, nuclear magnetic moments (NMagM)
  in nuclear magnetons)

  Atom         1           2           3           4           5           6           7           8           9          10
 IAtWgt=          12          12          12          12          12          12           1           1          12          12
 AtmWgt=  12.0000000  12.0000000  12.0000000  12.0000000  12.0000000  12.0000000   1.0078250   1.0078250  12.0000000  12.0000000
 NucSpn=           0           0           0           0           0           0           1           1           0           0
 AtZEff=   3.6000000   3.6000000   3.6000000   3.6000000   3.6000000   3.6000000   1.0000000   1.0000000   3.6000000   3.6000000
 NQMom=    0.0000000   0.0000000   0.0000000   0.0000000   0.0000000   0.0000000   0.0000000   0.0000000   0.0000000   0.0000000
 NMagM=    0.0000000   0.0000000   0.0000000   0.0000000   0.0000000   0.0000000   2.7928460   2.7928460   0.0000000   0.0000000
 AtZNuc=   6.0000000   6.0000000   6.0000000   6.0000000   6.0000000   6.0000000   1.0000000   1.0000000   6.0000000   6.0000000

  Atom        11          12          13          14          15          16          17          18          19          20
 IAtWgt=           1          12          12           1           1          12          16          12          16          14
 AtmWgt=   1.0078250  12.0000000  12.0000000   1.0078250   1.0078250  12.0000000  15.9949146  12.0000000  15.9949146  14.0030740
 NucSpn=           1           0           0           1           1           0           0           0           0           2
 AtZEff=   1.0000000   3.6000000   3.6000000   1.0000000   1.0000000   3.6000000   5.6000000   3.6000000   5.6000000   4.5500000
 NQMom=    0.0000000   0.0000000   0.0000000   0.0000000   0.0000000   0.0000000   0.0000000   0.0000000   0.0000000   2.0440000
 NMagM=    2.7928460   0.0000000   0.0000000   2.7928460   2.7928460   0.0000000   0.0000000   0.0000000   0.0000000   0.4037610
 AtZNuc=   1.0000000   6.0000000   6.0000000   1.0000000   1.0000000   6.0000000   8.0000000   6.0000000   8.0000000   7.0000000

  Atom        21          22          23          24          25          26          27          28          29          30
 IAtWgt=          12           1           1          12           1           1          12           1           1          12
 AtmWgt=  12.0000000   1.0078250   1.0078250  12.0000000   1.0078250   1.0078250  12.0000000   1.0078250   1.0078250  12.0000000
 NucSpn=           0           1           1           0           1           1           0           1           1           0
 AtZEff=   3.6000000   1.0000000   1.0000000   3.6000000   1.0000000   1.0000000   3.6000000   1.0000000   1.0000000   3.6000000
 NQMom=    0.0000000   0.0000000   0.0000000   0.0000000   0.0000000   0.0000000   0.0000000   0.0000000   0.0000000   0.0000000
 NMagM=    0.0000000   2.7928460   2.7928460   0.0000000   2.7928460   2.7928460   0.0000000   2.7928460   2.7928460   0.0000000
 AtZNuc=   6.0000000   1.0000000   1.0000000   6.0000000   1.0000000   1.0000000   6.0000000   1.0000000   1.0000000   6.0000000

  Atom        31          32          33          34          35          36          37          38          39          40
 IAtWgt=           1           1          12           1          14           1           1          12          16          16
 AtmWgt=   1.0078250   1.0078250  12.0000000   1.0078250  14.0030740   1.0078250   1.0078250  12.0000000  15.9949146  15.9949146
 NucSpn=           1           1           0           1           2           1           1           0           0           0
 AtZEff=   1.0000000   1.0000000   3.6000000   1.0000000   4.5500000   1.0000000   1.0000000   3.6000000   5.6000000   5.6000000
 NQMom=    0.0000000   0.0000000   0.0000000   0.0000000   2.0440000   0.0000000   0.0000000   0.0000000   0.0000000   0.0000000
 NMagM=    2.7928460   2.7928460   0.0000000   2.7928460   0.4037610   2.7928460   2.7928460   0.0000000   0.0000000   0.0000000
 AtZNuc=   1.0000000   1.0000000   6.0000000   1.0000000   7.0000000   1.0000000   1.0000000   6.0000000   8.0000000   8.0000000

  Atom        41          42          43          44
 IAtWgt=           1          14          14          14
 AtmWgt=   1.0078250  14.0030740  14.0030740  14.0030740
 NucSpn=           1           2           2           2
 AtZEff=   1.0000000   4.5500000   4.5500000   4.5500000
 NQMom=    0.0000000   2.0440000   2.0440000   2.0440000
 NMagM=    2.7928460   0.4037610   0.4037610   0.4037610
 AtZNuc=   1.0000000   7.0000000   7.0000000   7.0000000
 Leave Link  101 at Wed Sep 20 15:31:47 2023, MaxMem=  1073741824 cpu:               0.5 elap:               0.3
 (Enter /trinity/shared/apps/ccipl/gaussian/g16-A03-has-16.9-p/g16/l202.exe)
                          Input orientation:                          
 ---------------------------------------------------------------------
 Center     Atomic      Atomic             Coordinates (Angstroms)
 Number     Number       Type             X           Y           Z
 ---------------------------------------------------------------------
      1          6           0       -2.999804    1.501116    1.226475
      2          6           0       -3.636702    0.964428    0.126664
      3          6           0       -3.101342   -0.176429   -0.541696
      4          6           0       -1.902201   -0.738118   -0.041009
      5          6           0       -1.263810   -0.172242    1.086648
      6          6           0       -1.808637    0.928536    1.702751
      7          1           0       -4.631933   -0.327256   -2.053856
      8          1           0       -3.410787    2.368124    1.731331
      9          6           0       -3.715752   -0.761628   -1.674200
     10          6           0       -1.348616   -1.869912   -0.680309
     11          1           0       -1.302918    1.347179    2.564521
     12          6           0       -1.962970   -2.420538   -1.779484
     13          6           0       -3.155382   -1.860535   -2.278187
     14          1           0       -1.510935   -3.286654   -2.247771
     15          1           0       -3.630720   -2.301490   -3.145419
     16          6           0       -0.092022   -2.476425   -0.168995
     17          8           0        0.413938   -3.447198   -0.685851
     18          6           0       -0.004484   -0.752063    1.612813
     19          8           0        0.573852   -0.281309    2.567454
     20          7           0        0.491845   -1.879895    0.951463
     21          6           0        1.746368   -2.476246    1.437385
     22          1           0        1.853632   -2.175986    2.478024
     23          1           0        1.630027   -3.557482    1.378997
     24          6           0        2.950309   -2.026392    0.612581
     25          1           0        3.830672   -2.551599    0.998972
     26          1           0        2.814299   -2.354019   -0.422259
     27          6           0        3.185608   -0.518548    0.659640
     28          1           0        3.302341   -0.199486    1.701429
     29          1           0        2.307248    0.001222    0.267099
     30          6           0        4.411615   -0.111386   -0.153863
     31          1           0        5.298079   -0.613524    0.250788
     32          1           0        4.306550   -0.433748   -1.193478
     33          6           0        4.678095    1.387901   -0.134411
     34          1           0        4.570678    1.761301    0.896890
     35          7           0        5.991088    1.686619   -0.712874
     36          1           0        6.182309    2.681738   -0.668496
     37          1           0        6.713889    1.208560   -0.186674
     38          6           0        3.651986    2.144900   -0.962136
     39          8           0        2.723610    1.678830   -1.558559
     40          8           0        3.915288    3.469233   -0.953691
     41          1           0        3.257733    3.900727   -1.515477
     42          7           0       -4.834367    1.477157   -0.417273
     43          7           0       -5.311033    2.466600    0.148023
     44          7           0       -5.821421    3.360581    0.588739
 ---------------------------------------------------------------------
                    Distance matrix (angstroms):
                    1          2          3          4          5
     1  C    0.000000
     2  C    1.379586   0.000000
     3  C    2.439446   1.426489   0.000000
     4  C    2.797395   2.436241   1.415670   0.000000
     5  C    2.415234   2.800751   2.455208   1.413990   0.000000
     6  C    1.404836   2.413951   2.815950   2.413957   1.374093
     7  H    4.094797   2.722793   2.156869   3.416401   4.607716
     8  H    1.084200   2.143911   3.425954   3.881464   3.388006
     9  C    3.747867   2.495722   1.415105   2.440662   3.739208
    10  C    4.210235   3.730955   2.441136   1.412841   2.451818
    11  H    2.166445   3.396497   3.899268   3.390633   2.119971
    12  C    5.048780   4.229985   2.804289   2.420026   3.709228
    13  C    4.858761   3.741042   2.419615   2.799151   4.213133
    14  H    6.099988   5.313052   3.887620   3.393807   4.569353
    15  H    5.828492   4.623071   3.402278   3.881916   5.295881
    16  C    5.120875   4.948903   3.805903   2.512934   2.873845
    17  O    6.308442   6.044031   4.803739   3.622076   4.084352
    18  C    3.768025   4.283455   3.816254   2.517271   1.482884
    19  O    4.212633   5.023752   4.815066   3.625409   2.362559
    20  N    4.868108   5.080883   4.247624   2.831980   2.452892
    21  C    6.195970   6.521784   5.718935   4.303347   3.806918
    22  H    6.216373   6.747952   6.137484   4.745448   3.958454
    23  H    6.859155   7.053683   6.124250   4.737285   4.463139
    24  C    6.944352   7.250506   6.432511   5.062972   4.628327
    25  H    7.945543   8.299701   7.487851   6.102140   5.623413
    26  H    7.168276   7.275220   6.304837   5.000186   4.864969
    27  C    6.531437   7.001942   6.409836   5.140518   4.483256
    28  H    6.544819   7.210055   6.785226   5.514841   4.607432
    29  H    5.597757   6.023125   5.471614   4.284976   3.667997
    30  C    7.709386   8.124745   7.523242   6.345849   5.809735
    31  H    8.618499   9.073899   8.448039   7.207267   6.629614
    32  H    7.936163   8.172694   7.440961   6.322137   6.024639
    33  C    7.798395   8.329666   7.945606   6.915850   6.263487
    34  H    7.582118   8.281868   8.042650   7.001779   6.149459
    35  N    9.199545   9.691271   9.282916   8.284610   7.702414
    36  H    9.449655   9.999721   9.714493   8.800480   8.165196
    37  H    9.820306  10.358210   9.918820   8.834465   8.195831
    38  C    7.032125   7.463509   7.153515   6.325287   5.807901
    39  O    6.367532   6.618453   6.197262   5.435322   5.130605
    40  O    7.512996   8.029556   7.917935   7.237263   6.651795
    41  H    7.241077   7.671487   7.616383   7.093508   6.618495
    42  N    2.463352   1.411793   2.398584   3.694133   4.210840
    43  N    2.727086   2.249525   3.513410   4.682530   4.921841
    44  N    3.438872   3.275372   4.602950   5.705804   5.787968
                    6          7          8          9         10
     6  C    0.000000
     7  H    4.864166   0.000000
     8  H    2.154093   4.804572   0.000000
     9  C    4.230548   1.082684   4.635299   0.000000
    10  C    3.704309   3.878993   5.294290   2.796327   0.000000
    11  H    1.083356   5.934263   2.485889   5.313717   4.569539
    12  C    4.833847   3.403009   6.111733   2.415639   1.374338
    13  C    5.043858   2.140437   5.832926   1.373467   2.411992
    14  H    5.784728   4.305377   7.170719   3.400876   2.119066
    15  H    6.103917   2.468104   6.755469   2.131406   3.386890
    16  C    4.247818   5.364925   6.172122   4.282241   1.486045
    17  O    5.458233   6.088209   7.368125   5.024287   2.365261
    18  C    2.467280   5.919308   4.620878   4.957626   2.883520
    19  O    2.808503   6.961237   4.857566   6.051697   4.094815
    20  N    3.707281   6.139685   5.821030   5.084142   2.459690
    21  C    4.929606   7.582193   7.081707   6.515875   3.798841
    22  H    4.863262   8.125164   6.994326   7.089387   4.508119
    23  H    5.661588   7.837792   7.787602   6.761373   3.995115
    24  C    5.706806   8.215068   7.811973   7.159984   4.491860
    25  H    6.663967   9.267316   8.785144   8.203558   5.487231
    26  H    6.054946   7.887728   8.104831   6.837005   4.198906
    27  C    5.303265   8.277294   7.279686   7.289353   4.917401
    28  H    5.233979   8.779020   7.187461   7.807977   5.485836
    29  H    4.456626   7.324409   6.359412   6.373940   4.214744
    30  C    6.574191   9.243502   8.419733   8.293873   6.045645
    31  H    7.415629  10.197964   9.323442   9.218279   6.828177
    32  H    6.902135   8.980427   8.715635   8.043378   5.857202
    33  C    6.757505   9.659330   8.358938   8.800460   6.872597
    34  H    6.483716   9.887215   8.047876   9.035519   7.121187
    35  N    8.200344  10.895068   9.738267  10.056878   8.156055
    36  H    8.517731  11.310221   9.893686  10.528049   8.799573
    37  H    8.733945  11.600551  10.369783  10.717826   8.644342
    38  C    6.196738   8.713594   7.562232   7.952264   6.419047
    39  O    5.633857   7.640269   6.994950   6.887277   5.472469
    40  O    6.802584   9.416936   7.879921   8.755118   7.502659
    41  H    6.697687   8.967303   7.573625   8.390008   7.430762
    42  N    3.735041   2.444441   2.727068   2.800593   4.839682
    43  N    4.129116   3.621475   2.475378   4.035700   5.932303
    44  N    4.822686   4.690238   2.846339   5.152411   6.998180
                   11         12         13         14         15
    11  H    0.000000
    12  C    5.788069   0.000000
    13  C    6.096956   1.408600   0.000000
    14  H    6.683849   1.083414   2.176912   0.000000
    15  H    7.164835   2.159014   1.082811   2.503959   0.000000
    16  C    4.853692   2.469260   3.769905   2.644068   4.627319
    17  O    6.041404   2.810650   4.218184   2.484050   4.870460
    18  C    2.645467   4.257600   5.128036   4.857742   6.179893
    19  O    2.484803   5.468787   6.315170   6.046886   7.375397
    20  N    4.029533   3.711669   4.871681   4.028051   5.827326
    21  C    5.018681   4.910248   6.181564   4.984692   7.067228
    22  H    4.731171   5.722991   6.914570   5.906525   7.856015
    23  H    5.836380   4.917141   6.257377   4.805459   7.051476
    24  C    5.768968   5.478835   6.757478   5.447254   7.583415
    25  H    6.633639   6.426763   7.747405   6.293998   8.538788
    26  H    6.290564   4.966768   6.270972   4.786434   6.996901
    27  C    5.220764   6.006226   7.116172   6.178427   8.007477
    28  H    4.934117   6.691287   7.765218   6.949418   8.716518
    29  H    4.485872   5.318664   6.307531   5.631449   7.225457
    30  C    6.494067   6.972099   8.051815   7.038706   8.855796
    31  H    7.264357   7.753073   8.911327   7.729883   9.700871
    32  H    6.982864   6.602849   7.674161   6.564582   8.384437
    33  C    6.561891   7.830340   8.747084   8.038772   9.576752
    34  H    6.119773   8.206053   9.104439   8.506278  10.005472
    35  N    8.003690   9.015178   9.934305   9.130701  10.695863
    36  H    8.262086   9.675386  10.507893   9.864168  11.281101
    37  H    8.476879   9.539145  10.544965   9.597020  11.317489
    38  C    6.133901   7.282789   8.007232   7.603314   8.807662
    39  O    5.772583   6.230382   6.899820   6.562196   7.664110
    40  O    6.641581   8.362132   8.952938   8.761310   9.749213
    41  H    6.630726   8.202672   8.654589   8.656494   9.411429
    42  N    4.623756   5.029171   4.173988   6.090141   4.813494
    43  N    4.812229   6.229681   5.409013   7.299350   6.033647
    44  N    5.326760   7.342851   6.525878   8.414975   7.127563
                   16         17         18         19         20
    16  C    0.000000
    17  O    1.210593   0.000000
    18  C    2.481114   3.566887   0.000000
    19  O    3.570725   4.542292   1.211372   0.000000
    20  N    1.397203   2.267886   1.398475   2.274561   0.000000
    21  C    2.441339   2.688168   2.463547   2.733057   1.471592
    22  H    3.298870   3.701190   2.495745   2.288151   2.067008
    23  H    2.555468   2.398881   3.255253   3.641599   2.071845
    24  C    3.173195   3.183990   3.369745   3.537569   2.486030
    25  H    4.093571   3.913412   4.280602   4.268633   3.406055
    26  H    2.919902   2.650708   3.827965   4.272483   2.739653
    27  C    3.906760   4.250822   3.337627   3.243040   3.032290
    28  H    4.494957   4.958791   3.353846   2.863799   3.359332
    29  H    3.476408   4.047757   2.778937   2.894152   2.702340
    30  C    5.086884   5.233744   4.799327   4.707745   4.440041
    31  H    5.718374   5.723795   5.476448   5.272156   5.019415
    32  H    4.956766   4.948838   5.153795   5.301026   4.609131
    33  C    6.139074   6.470340   5.436799   5.189523   5.420544
    34  H    6.390243   6.849235   5.268933   4.789327   5.467921
    35  N    7.391276   7.580330   6.877708   6.631722   6.762523
    36  H    8.137775   8.416547   7.434498   7.120801   7.470886
    37  H    7.739499   7.849500   7.226253   6.892386   7.039016
    38  C    6.000276   6.467832   5.328464   5.274410   5.463271
    39  O    5.208149   5.689672   4.838320   5.048523   4.893415
    40  O    7.212845   7.756817   6.306417   6.134348   6.630441
    41  H    7.328161   7.922591   6.486657   6.431405   6.866696
    42  N    6.179182   7.201813   5.693719   6.422588   6.442963
    43  N    7.195281   8.273067   6.376901   6.930838   7.294582
    44  N    8.214062   9.319342   7.197175   7.620905   8.212885
                   21         22         23         24         25
    21  C    0.000000
    22  H    1.088389   0.000000
    23  H    1.089043   1.779436   0.000000
    24  C    1.527136   2.169091   2.162123   0.000000
    25  H    2.131245   2.497472   2.449297   1.095527   0.000000
    26  H    2.147951   3.060428   2.468876   1.093952   1.758394
    27  C    2.551251   2.797817   3.488900   1.526818   2.159757
    28  H    2.770272   2.570683   3.765200   2.155714   2.510979
    29  H    2.796784   3.135951   3.789369   2.155018   3.061593
    30  C    3.902329   4.211019   4.686413   2.527865   2.760645
    31  H    4.182391   4.389315   4.836771   2.763895   2.543462
    32  H    4.200925   4.746802   4.851713   2.763649   3.085221
    33  C    5.098745   5.244397   6.003160   3.898800   4.185970
    34  H    5.121100   5.038309   6.096664   4.129533   4.377115
    35  N    6.322239   6.497699   7.134099   4.978917   5.055720
    36  H    7.121594   7.227414   7.990204   5.852646   5.974819
    37  H    6.394656   6.494449   7.142278   5.026754   4.884413
    38  C    5.544734   5.808514   6.487402   4.513509   5.092639
    39  O    5.214915   5.648935   6.102796   4.300455   5.065874
    40  O    6.765366   6.920664   7.748456   5.795368   6.330124
    41  H    7.188143   7.405808   8.164085   6.305068   6.948613
    42  N    7.897799   8.152149   8.388240   8.598641   9.660203
    43  N    8.712123   8.849573   9.272711   9.415549  10.463136
    44  N    9.594800   9.650358  10.198440  10.293847  11.326300
                   26         27         28         29         30
    26  H    0.000000
    27  C    2.162713   0.000000
    28  H    3.064351   1.095788   0.000000
    29  H    2.505888   1.093511   1.757213   0.000000
    30  C    2.766380   1.526650   2.163414   2.149011   0.000000
    31  H    3.106683   2.153767   2.501751   3.053400   1.096222
    32  H    2.551281   2.167429   3.073077   2.513900   1.093506
    33  C    4.190293   2.548055   2.789768   2.775789   1.522909
    34  H    4.664856   2.678137   2.469949   2.935580   2.153216
    35  N    5.148126   3.823254   4.076225   4.167924   2.457651
    36  H    6.063248   4.581047   4.712983   4.803811   3.346901
    37  H    5.287180   4.018447   4.145623   4.591520   2.654016
    38  C    4.607978   3.153034   3.565526   2.813307   2.514193
    39  O    4.190856   3.156314   3.806642   2.514111   2.833268
    40  O    5.950198   4.363218   4.569996   4.012882   3.702283
    41  H    6.365030   4.926086   5.211739   4.391712   4.391183
    42  N    8.554532   8.334421   8.573567   7.324576   9.385150
    43  N    9.464915   9.020298   9.149388   8.008150  10.063152
    44  N   10.404539   9.807102   9.856733   8.801364  10.831484
                   31         32         33         34         35
    31  H    0.000000
    32  H    1.761066   0.000000
    33  C    2.130366   2.139643   0.000000
    34  H    2.566389   3.042637   1.102065   0.000000
    35  N    2.588352   2.750383   1.465538   2.148135   0.000000
    36  H    3.533511   3.674280   2.054731   2.427960   1.014296
    37  H    2.348591   3.083198   2.044346   2.464343   1.013838
    38  C    3.433615   2.670468   1.520222   2.108820   2.396571
    39  O    3.893137   2.664952   2.435744   3.073710   3.375153
    40  O    4.475688   3.929866   2.363268   2.602156   2.746753
    41  H    5.259388   4.471171   3.199854   3.481448   3.608002
    42  N   10.367435   9.370721   9.517085   9.500665  10.831516
    43  N   11.047669  10.134572  10.051171   9.935113  11.361666
    44  N   11.813171  10.961251  10.707672  10.518953  12.001321
                   36         37         38         39         40
    36  H    0.000000
    37  H    1.638592   0.000000
    38  C    2.603258   3.294438   0.000000
    39  O    3.709533   4.245651   1.197841   0.000000
    40  O    2.416789   3.678468   1.350280   2.234168   0.000000
    41  H    3.279704   4.578045   1.882698   2.285601   0.966524
    42  N   11.085183  11.553681   8.530003   7.646321   8.989581
    43  N   11.524318  12.095182   9.037237   8.251575   9.345804
    44  N   12.088466  12.742310   9.676184   8.969768   9.858722
                   41         42         43         44
    41  H    0.000000
    42  N    8.518323   0.000000
    43  N    8.845773   1.235220   0.000000
    44  N    9.335444   2.352365   1.119790   0.000000
 Symmetry turned off by external request.
 Stoichiometry    C18H17N5O4
 Framework group  C1[X(C18H17N5O4)]
 Deg. of freedom   126
 Full point group                 C1      NOp   1
 Rotational constants (GHZ):           0.2656195           0.1095085           0.0925280
 Leave Link  202 at Wed Sep 20 15:31:47 2023, MaxMem=  1073741824 cpu:               0.5 elap:               0.3
 (Enter /trinity/shared/apps/ccipl/gaussian/g16-A03-has-16.9-p/g16/l716.exe)
 Electric field and nuclear coordinate derivatives read from checkpoint file.
 Dipole        =-5.17602792D-01 8.88596644D-01 2.43248044D-01
 Polarizability= 3.05251731D+02-6.31410949D+01 2.70489356D+02
                 3.10649194D+01 4.21320850D+01 2.16568567D+02
 Full mass-weighted force constant matrix:
 Low frequencies ---   -4.9349    0.0004    0.0006    0.0007    0.3520    4.1284
 Low frequencies ---   13.8594   14.5919   25.6789
 Diagonal vibrational polarizability:
      156.4932877     122.7045007      65.4111415
 Harmonic frequencies (cm**-1), IR intensities (KM/Mole), Raman scattering
 activities (A**4/AMU), depolarization ratios for plane and unpolarized
 incident light, reduced masses (AMU), force constants (mDyne/A),
 and normal coordinates:
                      1                      2                      3
                      A                      A                      A
 Frequencies --     13.7538                14.5610                25.6690
 Red. masses --      7.0898                 6.9235                 5.7018
 Frc consts  --      0.0008                 0.0009                 0.0022
 IR Inten    --      0.4482                 0.7206                 0.9273
  Atom  AN      X      Y      Z        X      Y      Z        X      Y      Z
     1   6    -0.05   0.01  -0.04     0.08   0.03  -0.05     0.07   0.03  -0.04
     2   6    -0.08  -0.03  -0.00     0.06   0.02  -0.04     0.02   0.00   0.01
     3   6    -0.08  -0.05   0.02     0.03  -0.01  -0.01    -0.03  -0.04   0.03
     4   6    -0.05  -0.01  -0.01     0.02  -0.03   0.01    -0.03  -0.05   0.01
     5   6    -0.03   0.04  -0.05     0.04  -0.01  -0.01     0.03  -0.02  -0.03
     6   6    -0.02   0.05  -0.06     0.06   0.01  -0.04     0.07   0.01  -0.05
     7   1    -0.13  -0.12   0.07     0.03  -0.02   0.00    -0.10  -0.08   0.11
     8   1    -0.04   0.02  -0.06     0.10   0.06  -0.08     0.12   0.06  -0.06
     9   6    -0.11  -0.09   0.06     0.02  -0.03   0.01    -0.10  -0.08   0.09
    10   6    -0.06  -0.02   0.01    -0.00  -0.06   0.03    -0.07  -0.07   0.02
    11   1     0.00   0.08  -0.10     0.07   0.02  -0.05     0.11   0.03  -0.09
    12   6    -0.09  -0.07   0.05    -0.02  -0.07   0.05    -0.12  -0.11   0.07
    13   6    -0.11  -0.11   0.07    -0.01  -0.06   0.04    -0.14  -0.11   0.11
    14   1    -0.09  -0.08   0.07    -0.04  -0.09   0.07    -0.15  -0.13   0.08
    15   1    -0.14  -0.14   0.11    -0.02  -0.07   0.05    -0.19  -0.14   0.15
    16   6    -0.04   0.01  -0.00    -0.00  -0.06   0.03    -0.04  -0.06  -0.02
    17   8    -0.04  -0.00   0.01    -0.02  -0.07   0.05    -0.05  -0.06  -0.04
    18   6    -0.00   0.07  -0.06     0.03  -0.03   0.00     0.03  -0.04  -0.05
    19   8     0.02   0.10  -0.09     0.03  -0.02  -0.01     0.05  -0.04  -0.06
    20   7    -0.01   0.05  -0.04     0.01  -0.04   0.02     0.00  -0.04  -0.05
    21   6    -0.01   0.06  -0.04     0.02  -0.03   0.00     0.02  -0.03  -0.09
    22   1     0.00   0.08  -0.04     0.04  -0.02  -0.00     0.03  -0.07  -0.08
    23   1    -0.02   0.06  -0.01     0.03  -0.03   0.01     0.04  -0.03  -0.12
    24   6    -0.01   0.02  -0.06     0.00  -0.03  -0.03     0.00   0.02  -0.09
    25   1    -0.02  -0.00  -0.07     0.01  -0.03  -0.06     0.02   0.02  -0.11
    26   1    -0.04   0.03  -0.05    -0.03  -0.02  -0.03    -0.00   0.05  -0.10
    27   6     0.04   0.02  -0.05    -0.00  -0.03  -0.03    -0.02   0.02  -0.03
    28   1     0.06   0.01  -0.05     0.08  -0.04  -0.03    -0.09  -0.01  -0.01
    29   1     0.05   0.05  -0.04    -0.03  -0.02   0.05    -0.01   0.02  -0.07
    30   6     0.04  -0.02  -0.07    -0.07  -0.01  -0.12     0.02   0.07   0.06
    31   1     0.02  -0.11  -0.11    -0.04  -0.05  -0.24     0.01   0.11   0.13
    32   1    -0.01   0.03  -0.08    -0.18   0.06  -0.13     0.11   0.07   0.05
    33   6     0.15  -0.04   0.00    -0.03  -0.01  -0.05    -0.05   0.08   0.10
    34   1     0.22  -0.09   0.02     0.13  -0.08  -0.01    -0.18   0.07   0.09
    35   7     0.15  -0.11  -0.04    -0.10  -0.01  -0.22     0.00   0.15   0.25
    36   1     0.23  -0.13   0.01    -0.06  -0.02  -0.16    -0.05   0.16   0.26
    37   1     0.14  -0.20  -0.09    -0.04  -0.08  -0.37    -0.03   0.19   0.34
    38   6     0.18   0.08   0.08    -0.12   0.08   0.14     0.01   0.04  -0.02
    39   8     0.12   0.18   0.09    -0.20   0.14   0.21     0.09  -0.01  -0.11
    40   8     0.28   0.06   0.15    -0.10   0.07   0.23    -0.05   0.05   0.01
    41   1     0.29   0.14   0.20    -0.16   0.13   0.36    -0.01   0.02  -0.06
    42   7    -0.10  -0.07   0.02     0.08   0.03  -0.05     0.02   0.02   0.02
    43   7    -0.11  -0.07   0.01     0.11   0.07  -0.09     0.09   0.08  -0.02
    44   7    -0.11  -0.06   0.00     0.14   0.10  -0.12     0.15   0.13  -0.06
                      4                      5                      6
                      A                      A                      A
 Frequencies --     42.3536                53.7999                58.1246
 Red. masses --      8.3767                 8.9853                 8.0398
 Frc consts  --      0.0089                 0.0153                 0.0160
 IR Inten    --      0.5580                 0.9070                 0.0557
  Atom  AN      X      Y      Z        X      Y      Z        X      Y      Z
     1   6    -0.08  -0.11   0.10    -0.13  -0.10   0.12    -0.06  -0.05   0.04
     2   6    -0.03  -0.06   0.05    -0.08  -0.07   0.07    -0.09  -0.07   0.07
     3   6    -0.02  -0.04   0.03    -0.04  -0.04   0.05    -0.08  -0.06   0.06
     4   6    -0.04  -0.07   0.06    -0.04  -0.02   0.05    -0.03  -0.00  -0.00
     5   6    -0.08  -0.11   0.10    -0.07  -0.04   0.08    -0.01   0.01  -0.02
     6   6    -0.10  -0.14   0.13    -0.12  -0.09   0.12    -0.03  -0.01   0.01
     7   1     0.04   0.02  -0.03    -0.01  -0.02   0.01    -0.16  -0.14   0.15
     8   1    -0.09  -0.13   0.12    -0.16  -0.14   0.14    -0.07  -0.06   0.06
     9   6     0.02   0.00  -0.01    -0.00  -0.01   0.01    -0.12  -0.09   0.09
    10   6    -0.01  -0.04   0.03     0.01   0.02   0.02     0.01   0.05  -0.05
    11   1    -0.13  -0.18   0.17    -0.15  -0.11   0.15    -0.02  -0.00  -0.00
    12   6     0.03   0.01  -0.02     0.05   0.05  -0.02    -0.02   0.02  -0.03
    13   6     0.04   0.02  -0.03     0.04   0.03  -0.02    -0.09  -0.05   0.05
    14   1     0.05   0.03  -0.04     0.08   0.08  -0.04     0.01   0.06  -0.07
    15   1     0.07   0.06  -0.07     0.07   0.05  -0.05    -0.11  -0.08   0.08
    16   6    -0.01  -0.04   0.03     0.02   0.04   0.01     0.07   0.11  -0.13
    17   8     0.02  -0.01  -0.00     0.04   0.06   0.00     0.14   0.19  -0.21
    18   6    -0.07  -0.11   0.10    -0.04  -0.00   0.06     0.01   0.03  -0.05
    19   8    -0.10  -0.14   0.13    -0.05   0.01   0.06    -0.00   0.02  -0.03
    20   7    -0.03  -0.06   0.04     0.00   0.04   0.02     0.03   0.06  -0.08
    21   6     0.01  -0.01  -0.00     0.02   0.05   0.01    -0.00   0.02  -0.03
    22   1     0.04  -0.02  -0.00     0.04   0.08  -0.00    -0.06  -0.03  -0.01
    23   1     0.06  -0.01  -0.01     0.02   0.05   0.05    -0.03   0.02  -0.09
    24   6    -0.04   0.05  -0.04     0.00   0.02  -0.03     0.07   0.00   0.06
    25   1     0.00   0.10  -0.07     0.01   0.03  -0.02     0.02  -0.07   0.08
    26   1    -0.05   0.04  -0.04    -0.01  -0.02  -0.01     0.10   0.08   0.04
    27   6    -0.09   0.06  -0.06     0.01   0.02  -0.08     0.14  -0.01   0.16
    28   1    -0.10   0.08  -0.07    -0.02   0.06  -0.09     0.21  -0.08   0.18
    29   1    -0.10   0.04  -0.07     0.03   0.01  -0.13     0.13   0.05   0.25
    30   6    -0.09   0.06  -0.06     0.05  -0.02  -0.06     0.10  -0.01   0.11
    31   1    -0.10   0.02  -0.08     0.02  -0.04  -0.02     0.13   0.02   0.09
    32   1    -0.11   0.08  -0.07     0.06  -0.02  -0.06     0.06  -0.06   0.12
    33   6    -0.01   0.05  -0.04     0.06  -0.03  -0.05     0.06  -0.01   0.02
    34   1    -0.05   0.05  -0.04     0.13  -0.03  -0.05     0.11   0.04   0.01
    35   7     0.04  -0.03   0.04     0.03  -0.02  -0.14     0.01   0.00  -0.08
    36   1     0.08  -0.04  -0.01     0.07  -0.03  -0.03    -0.02   0.01  -0.16
    37   1    -0.02  -0.03   0.12     0.06  -0.11  -0.26     0.06   0.06  -0.10
    38   6     0.07   0.12  -0.07     0.05  -0.02  -0.03    -0.03  -0.08   0.06
    39   8    -0.06   0.21   0.06     0.26  -0.05  -0.32    -0.11  -0.13   0.22
    40   8     0.28   0.08  -0.25    -0.17   0.02   0.33    -0.02  -0.08  -0.11
    41   1     0.30   0.12  -0.24    -0.12   0.04   0.28    -0.09  -0.14  -0.07
    42   7     0.02  -0.01  -0.00    -0.06  -0.05   0.04    -0.11  -0.09   0.10
    43   7     0.08   0.07  -0.07     0.02   0.05  -0.08     0.01   0.05  -0.04
    44   7     0.15   0.14  -0.15     0.10   0.15  -0.19     0.12   0.17  -0.17
                      7                      8                      9
                      A                      A                      A
 Frequencies --     81.3063                93.3168               107.1250
 Red. masses --      8.8531                 4.5443                 6.0091
 Frc consts  --      0.0345                 0.0233                 0.0406
 IR Inten    --      0.0974                 2.2456                 0.1712
  Atom  AN      X      Y      Z        X      Y      Z        X      Y      Z
     1   6     0.11   0.13  -0.12     0.02   0.02  -0.00    -0.01  -0.03  -0.06
     2   6     0.07   0.08  -0.08    -0.01  -0.03   0.04    -0.03  -0.06  -0.03
     3   6     0.02   0.01  -0.01     0.01  -0.02   0.03    -0.03  -0.04  -0.05
     4   6     0.01   0.01  -0.00     0.04   0.02  -0.00    -0.02  -0.03  -0.06
     5   6     0.01   0.01  -0.00     0.05   0.05  -0.02    -0.01  -0.01  -0.08
     6   6     0.06   0.07  -0.07     0.05   0.06  -0.03     0.00  -0.01  -0.08
     7   1    -0.07  -0.09   0.09    -0.03  -0.07   0.07    -0.02  -0.06  -0.07
     8   1     0.17   0.19  -0.19     0.01   0.01  -0.00    -0.01  -0.04  -0.05
     9   6    -0.05  -0.07   0.07     0.00  -0.03   0.04    -0.01  -0.05  -0.06
    10   6     0.00  -0.00   0.01     0.06   0.05  -0.02     0.00  -0.03  -0.05
    11   1     0.06   0.07  -0.07     0.07   0.09  -0.05     0.02   0.00  -0.10
    12   6    -0.06  -0.07   0.07     0.07   0.04  -0.02     0.02  -0.02  -0.07
    13   6    -0.10  -0.13   0.13     0.04   0.00   0.01     0.02  -0.03  -0.07
    14   1    -0.06  -0.08   0.08     0.09   0.06  -0.04     0.03  -0.02  -0.07
    15   1    -0.16  -0.20   0.20     0.04  -0.01   0.01     0.04  -0.02  -0.09
    16   6     0.08   0.08  -0.08     0.06   0.06  -0.02    -0.01  -0.04  -0.01
    17   8     0.20   0.22  -0.21     0.11   0.10  -0.06     0.00  -0.04   0.01
    18   6    -0.08  -0.10   0.11     0.05   0.05  -0.01    -0.02   0.01  -0.06
    19   8    -0.21  -0.23   0.25     0.07   0.09  -0.05    -0.00   0.06  -0.09
    20   7    -0.01  -0.02   0.02    -0.00  -0.00   0.04    -0.04  -0.03   0.00
    21   6    -0.02  -0.02   0.03    -0.03  -0.04   0.08    -0.06  -0.00   0.08
    22   1    -0.05  -0.06   0.04    -0.03   0.00   0.06    -0.16  -0.05   0.10
    23   1     0.01  -0.02  -0.02    -0.07  -0.04   0.12    -0.01  -0.00   0.01
    24   6    -0.01   0.03   0.07    -0.01  -0.11   0.07    -0.01   0.08   0.20
    25   1     0.00   0.09   0.14     0.00   0.02   0.21    -0.01   0.18   0.31
    26   1     0.07  -0.02   0.08     0.07  -0.28   0.11     0.13   0.02   0.20
    27   6    -0.08   0.04   0.01    -0.14  -0.08  -0.15    -0.11   0.11   0.11
    28   1    -0.12   0.10  -0.00    -0.24   0.07  -0.18    -0.20   0.20   0.09
    29   1    -0.08  -0.01  -0.05    -0.15  -0.21  -0.28    -0.11   0.04   0.00
    30   6    -0.06   0.01   0.02    -0.13  -0.07  -0.11    -0.08   0.05   0.14
    31   1    -0.08  -0.01   0.04    -0.14  -0.10  -0.11    -0.10   0.06   0.21
    32   1    -0.05  -0.02   0.03    -0.10  -0.02  -0.13    -0.04  -0.03   0.16
    33   6    -0.00  -0.00  -0.03    -0.12  -0.07   0.00    -0.01   0.04   0.01
    34   1     0.06   0.03  -0.03    -0.21  -0.15   0.02     0.09   0.14  -0.02
    35   7    -0.01  -0.08  -0.09    -0.06  -0.05   0.16    -0.03  -0.10  -0.12
    36   1     0.06  -0.09  -0.08    -0.06  -0.05   0.21     0.07  -0.12  -0.16
    37   1    -0.01  -0.14  -0.13    -0.11  -0.07   0.22    -0.02  -0.16  -0.18
    38   6     0.02   0.02  -0.03    -0.04   0.00  -0.02     0.01   0.04  -0.01
    39   8     0.07   0.04  -0.11    -0.06   0.08  -0.05     0.05   0.04  -0.07
    40   8     0.01   0.02   0.05     0.04  -0.01   0.03     0.02   0.04   0.01
    41   1     0.05   0.05   0.03     0.07   0.05   0.03     0.05   0.05  -0.03
    42   7     0.09   0.09  -0.09    -0.06  -0.10   0.09    -0.07  -0.04   0.05
    43   7     0.00  -0.00  -0.00    -0.01  -0.03   0.01     0.09  -0.00   0.11
    44   7    -0.08  -0.09   0.09     0.03   0.03  -0.07     0.29   0.05   0.24
                     10                     11                     12
                      A                      A                      A
 Frequencies --    126.1202               130.8791               157.4581
 Red. masses --      7.2469                 6.7045                 2.0611
 Frc consts  --      0.0679                 0.0677                 0.0301
 IR Inten    --      3.5461                 4.6138                 1.5713
  Atom  AN      X      Y      Z        X      Y      Z        X      Y      Z
     1   6    -0.14  -0.10   0.03    -0.01  -0.07   0.13     0.01   0.01  -0.01
     2   6    -0.02   0.01  -0.10     0.06   0.04   0.04     0.00  -0.00  -0.00
     3   6    -0.02  -0.01  -0.06     0.03   0.02   0.04    -0.00  -0.01   0.01
     4   6    -0.04  -0.02  -0.01     0.00  -0.03   0.04    -0.01  -0.01   0.01
     5   6    -0.10  -0.04   0.03     0.00  -0.06   0.06    -0.01  -0.01   0.01
     6   6    -0.18  -0.11   0.09    -0.03  -0.12   0.13     0.01   0.01  -0.01
     7   1     0.00  -0.07  -0.08     0.02   0.09   0.05     0.01  -0.00  -0.00
     8   1    -0.17  -0.12   0.04    -0.02  -0.09   0.16     0.02   0.02  -0.02
     9   6    -0.01  -0.06  -0.04    -0.00   0.05   0.04     0.00  -0.01  -0.00
    10   6    -0.01  -0.02   0.02    -0.03  -0.03   0.02    -0.00  -0.01   0.01
    11   1    -0.24  -0.15   0.15    -0.04  -0.17   0.16     0.01   0.02  -0.02
    12   6    -0.02  -0.09   0.06    -0.07  -0.02   0.03     0.01   0.00  -0.00
    13   6    -0.03  -0.12   0.04    -0.07   0.01   0.06     0.01   0.00  -0.01
    14   1    -0.01  -0.10   0.10    -0.10  -0.03   0.03     0.02   0.01  -0.01
    15   1    -0.04  -0.18   0.08    -0.10   0.01   0.08     0.02   0.01  -0.02
    16   6     0.04   0.06   0.01     0.00  -0.03  -0.05    -0.00   0.00   0.00
    17   8     0.11   0.11  -0.02     0.04   0.04  -0.13     0.03   0.03  -0.02
    18   6    -0.03   0.07  -0.01     0.08  -0.01  -0.06     0.00  -0.00   0.00
    19   8    -0.01   0.16  -0.06     0.22   0.09  -0.20     0.03   0.03  -0.03
    20   7     0.01   0.08   0.01    -0.02  -0.09  -0.00    -0.03  -0.03   0.03
    21   6     0.01   0.08   0.03    -0.02  -0.08   0.00    -0.02  -0.02   0.01
    22   1     0.04   0.19  -0.00    -0.10  -0.19   0.04    -0.01  -0.04   0.02
    23   1    -0.04   0.08   0.15     0.02  -0.08  -0.12    -0.01  -0.02  -0.01
    24   6     0.01  -0.05  -0.03     0.01   0.03   0.13    -0.05   0.00  -0.01
    25   1    -0.01  -0.07  -0.01     0.03   0.13   0.23    -0.05  -0.14  -0.19
    26   1    -0.03  -0.12  -0.01     0.15  -0.02   0.12    -0.18   0.17  -0.05
    27   6     0.05  -0.06  -0.11    -0.11   0.06   0.07     0.11  -0.03   0.19
    28   1     0.07  -0.04  -0.12    -0.22   0.14   0.05     0.41  -0.22   0.22
    29   1     0.05  -0.06  -0.10    -0.11  -0.02  -0.05     0.05   0.13   0.52
    30   6     0.04  -0.06  -0.12    -0.07   0.03   0.13    -0.07  -0.01  -0.06
    31   1     0.05  -0.07  -0.17    -0.09   0.05   0.21     0.01  -0.06  -0.31
    32   1     0.02   0.00  -0.14     0.00  -0.03   0.14    -0.33   0.06  -0.06
    33   6    -0.00  -0.05  -0.02    -0.02   0.02   0.03    -0.05  -0.02  -0.02
    34   1    -0.09  -0.13   0.01     0.05   0.10   0.00    -0.08  -0.03  -0.01
    35   7     0.02   0.06   0.11    -0.04  -0.09  -0.08    -0.02  -0.02   0.04
    36   1    -0.06   0.07   0.15     0.05  -0.11  -0.11    -0.02  -0.02   0.04
    37   1     0.01   0.10   0.16    -0.04  -0.14  -0.12    -0.05  -0.01   0.08
    38   6    -0.01  -0.04   0.01    -0.00   0.03  -0.00    -0.01   0.02  -0.04
    39   8    -0.05  -0.03   0.05     0.02   0.03  -0.04     0.01   0.05  -0.09
    40   8    -0.01  -0.04   0.01     0.02   0.02  -0.00     0.02   0.02   0.01
    41   1    -0.04  -0.03   0.05     0.05   0.03  -0.04     0.05   0.05  -0.01
    42   7     0.11   0.19  -0.23     0.17   0.14  -0.10     0.00  -0.00  -0.01
    43   7     0.10   0.05   0.00    -0.00   0.04  -0.07     0.00  -0.00  -0.00
    44   7     0.15  -0.05   0.27    -0.21  -0.06  -0.11     0.01  -0.01   0.00
                     13                     14                     15
                      A                      A                      A
 Frequencies --    169.5023               189.5459               203.2618
 Red. masses --      4.2954                 3.8168                 4.5286
 Frc consts  --      0.0727                 0.0808                 0.1102
 IR Inten    --      0.4359                 0.8491                 0.3755
  Atom  AN      X      Y      Z        X      Y      Z        X      Y      Z
     1   6    -0.06  -0.08   0.08     0.07   0.07  -0.07    -0.00  -0.00   0.00
     2   6     0.00   0.01   0.00    -0.02  -0.00   0.02    -0.00   0.02  -0.01
     3   6     0.04   0.07  -0.06    -0.11  -0.10   0.10     0.05   0.07  -0.07
     4   6     0.08   0.09  -0.11    -0.13  -0.13   0.11    -0.03  -0.03   0.01
     5   6     0.06   0.05  -0.08    -0.08  -0.09   0.06    -0.02  -0.02   0.00
     6   6    -0.03  -0.06   0.04     0.03   0.02  -0.04     0.01   0.01  -0.03
     7   1    -0.06  -0.03   0.06    -0.07  -0.03   0.04     0.28   0.35  -0.34
     8   1    -0.13  -0.16   0.17     0.18   0.19  -0.19    -0.03  -0.05   0.05
     9   6    -0.03   0.01   0.01    -0.07  -0.03   0.04     0.14   0.18  -0.18
    10   6     0.05   0.07  -0.09    -0.06  -0.06   0.04    -0.12  -0.13   0.11
    11   1    -0.09  -0.14   0.12     0.11   0.09  -0.13     0.03   0.02  -0.04
    12   6    -0.05  -0.02   0.01     0.04   0.08  -0.09    -0.16  -0.16   0.15
    13   6    -0.09  -0.05   0.06     0.03   0.08  -0.07     0.01   0.04  -0.04
    14   1    -0.11  -0.08   0.06     0.12   0.18  -0.20    -0.26  -0.26   0.25
    15   1    -0.17  -0.13   0.15     0.11   0.18  -0.17     0.06   0.09  -0.09
    16   6     0.02   0.01  -0.05    -0.02  -0.03  -0.00    -0.02  -0.04   0.02
    17   8    -0.09  -0.10   0.06    -0.02  -0.02  -0.01     0.07   0.07  -0.09
    18   6     0.02   0.01  -0.05    -0.03  -0.04  -0.00    -0.02  -0.03   0.00
    19   8    -0.07  -0.09   0.05    -0.01  -0.00  -0.03    -0.00   0.01  -0.03
    20   7     0.08   0.08  -0.11     0.03   0.01  -0.04    -0.02  -0.03   0.02
    21   6    -0.01  -0.01   0.03     0.01   0.00   0.04     0.00   0.00   0.03
    22   1    -0.13  -0.03   0.05    -0.08  -0.00   0.05    -0.04  -0.01   0.04
    23   1    -0.06   0.00  -0.01    -0.00   0.01   0.03     0.02  -0.00   0.02
    24   6     0.14  -0.06   0.20     0.13  -0.04   0.17     0.06  -0.01   0.09
    25   1     0.08  -0.00   0.41     0.07   0.03   0.39     0.03   0.02   0.21
    26   1     0.32  -0.18   0.21     0.31  -0.20   0.19     0.15  -0.10   0.11
    27   6     0.09  -0.05   0.06     0.08  -0.03  -0.01     0.05  -0.01  -0.01
    28   1     0.14   0.03   0.03     0.08   0.09  -0.05     0.06   0.06  -0.04
    29   1     0.03  -0.12   0.09     0.05  -0.11  -0.06     0.04  -0.05  -0.04
    30   6    -0.01  -0.02  -0.07     0.05  -0.02  -0.07     0.04  -0.01  -0.06
    31   1     0.05  -0.02  -0.19     0.08  -0.00  -0.12     0.05  -0.01  -0.09
    32   1    -0.13   0.01  -0.06     0.00  -0.00  -0.07     0.00   0.00  -0.06
    33   6    -0.03  -0.01  -0.03     0.02  -0.00  -0.04     0.02  -0.00  -0.03
    34   1    -0.07  -0.04  -0.03    -0.02  -0.04  -0.03    -0.00  -0.03  -0.02
    35   7    -0.01   0.03   0.02     0.02   0.08   0.01     0.03   0.06   0.01
    36   1    -0.05   0.03   0.03    -0.05   0.09   0.01    -0.04   0.07   0.00
    37   1    -0.02   0.06   0.06     0.03   0.14   0.05     0.04   0.11   0.04
    38   6    -0.01   0.03  -0.04     0.01   0.01  -0.02     0.01   0.00  -0.01
    39   8    -0.01   0.07  -0.06    -0.01   0.03  -0.01    -0.00   0.00   0.01
    40   8     0.02   0.02   0.01     0.01   0.01   0.00    -0.00   0.00   0.00
    41   1     0.04   0.06   0.02    -0.01   0.02   0.03    -0.02   0.01   0.03
    42   7     0.00   0.02   0.01     0.03   0.08  -0.04    -0.09  -0.07   0.10
    43   7    -0.01   0.02   0.00    -0.00   0.04  -0.00    -0.04  -0.01   0.04
    44   7    -0.03   0.02  -0.02    -0.05   0.00   0.02     0.00   0.04  -0.03
                     16                     17                     18
                      A                      A                      A
 Frequencies --    242.5997               257.3923               266.6442
 Red. masses --      3.9215                 5.7695                 3.6500
 Frc consts  --      0.1360                 0.2252                 0.1529
 IR Inten    --      1.2875                 1.9383                10.4702
  Atom  AN      X      Y      Z        X      Y      Z        X      Y      Z
     1   6    -0.03   0.02  -0.02    -0.03   0.04   0.01    -0.01   0.03   0.01
     2   6    -0.03  -0.00  -0.02     0.01  -0.04   0.02     0.03   0.00  -0.01
     3   6    -0.01  -0.01   0.01     0.01  -0.03   0.08     0.05   0.03   0.00
     4   6    -0.02   0.00   0.04    -0.02  -0.01   0.12     0.04   0.06  -0.01
     5   6    -0.01   0.02   0.04    -0.00   0.05   0.08     0.01   0.03   0.03
     6   6    -0.03   0.04   0.00    -0.01   0.08   0.03    -0.02   0.02   0.03
     7   1     0.05   0.03  -0.05     0.09   0.17  -0.01    -0.08   0.02   0.14
     8   1    -0.04   0.03  -0.04    -0.04   0.06  -0.05    -0.04   0.01   0.01
     9   6     0.02   0.01  -0.01     0.03   0.08   0.02    -0.04   0.03   0.06
    10   6    -0.02   0.01   0.05    -0.07   0.00   0.08     0.00   0.06  -0.03
    11   1    -0.04   0.07  -0.01    -0.01   0.15  -0.00    -0.05   0.00   0.06
    12   6     0.00  -0.00   0.04    -0.07   0.03   0.07    -0.03   0.08  -0.02
    13   6     0.03   0.01  -0.00    -0.01   0.09  -0.00    -0.07   0.04   0.03
    14   1     0.02  -0.00   0.06    -0.06   0.03   0.07    -0.05   0.08  -0.03
    15   1     0.06   0.02  -0.02     0.04   0.15  -0.06    -0.12   0.01   0.07
    16   6    -0.01   0.03   0.01    -0.04   0.06  -0.03    -0.06  -0.01   0.00
    17   8    -0.03   0.03  -0.00    -0.11   0.02  -0.03    -0.06   0.02  -0.05
    18   6     0.02   0.03   0.02     0.04   0.06   0.01    -0.02  -0.02   0.04
    19   8     0.02   0.01   0.03     0.05  -0.04   0.05     0.05  -0.01  -0.01
    20   7     0.04   0.05  -0.02     0.09   0.16  -0.16    -0.12  -0.11   0.10
    21   6    -0.00  -0.06  -0.05     0.01   0.03  -0.13    -0.08  -0.05   0.06
    22   1     0.05  -0.05  -0.05    -0.04  -0.09  -0.09    -0.09  -0.10   0.07
    23   1    -0.11  -0.05  -0.02    -0.06   0.05  -0.26    -0.01  -0.05   0.00
    24   6     0.04  -0.17  -0.06     0.07   0.05   0.01    -0.06   0.00   0.07
    25   1     0.00  -0.23  -0.07     0.06   0.11   0.12    -0.08  -0.01   0.09
    26   1     0.01  -0.14  -0.07     0.21   0.04  -0.00    -0.05  -0.04   0.08
    27   6     0.05  -0.17   0.02    -0.04   0.05   0.03     0.02   0.01  -0.02
    28   1    -0.09  -0.23   0.05    -0.02   0.06   0.02     0.02   0.06  -0.04
    29   1     0.07  -0.18  -0.04    -0.07   0.01   0.04     0.05   0.02  -0.06
    30   6     0.10  -0.02   0.18    -0.10   0.03  -0.03     0.07  -0.03  -0.03
    31   1     0.13   0.17   0.37    -0.10  -0.05  -0.12     0.06  -0.01  -0.01
    32   1     0.33  -0.14   0.19    -0.20   0.08  -0.04     0.08  -0.06  -0.03
    33   6    -0.08   0.02   0.06    -0.02  -0.01   0.01     0.06  -0.01  -0.06
    34   1    -0.03   0.09   0.04    -0.03  -0.01   0.01     0.03  -0.02  -0.05
    35   7    -0.15   0.05  -0.10     0.02  -0.14   0.07     0.04   0.13  -0.04
    36   1    -0.15   0.05  -0.09     0.21  -0.18   0.21    -0.26   0.21  -0.36
    37   1    -0.07   0.02  -0.24    -0.07  -0.36   0.00     0.13   0.56   0.24
    38   6    -0.04   0.03   0.00    -0.01  -0.00  -0.00     0.03  -0.01  -0.01
    39   8    -0.02   0.12  -0.10    -0.01  -0.04   0.02     0.01   0.01   0.01
    40   8     0.11   0.01   0.00    -0.06  -0.00  -0.01     0.02   0.00   0.02
    41   1     0.24   0.07  -0.09    -0.08  -0.03  -0.01    -0.02   0.02   0.08
    42   7    -0.02  -0.02  -0.05     0.04  -0.14  -0.14     0.02  -0.11  -0.07
    43   7    -0.01  -0.02  -0.03     0.05  -0.15  -0.12     0.03  -0.11  -0.08
    44   7     0.05  -0.02   0.02     0.18  -0.15   0.01     0.12  -0.10  -0.00
                     19                     20                     21
                      A                      A                      A
 Frequencies --    284.5175               293.2988               312.8611
 Red. masses --      1.4788                 5.1494                 3.2788
 Frc consts  --      0.0705                 0.2610                 0.1891
 IR Inten    --     28.1439                 1.5118                 7.8025
  Atom  AN      X      Y      Z        X      Y      Z        X      Y      Z
     1   6    -0.00   0.01  -0.00    -0.09   0.02  -0.09     0.01  -0.02   0.04
     2   6     0.01   0.01  -0.01    -0.11   0.04  -0.09     0.02  -0.02   0.04
     3   6     0.01   0.01  -0.01    -0.03   0.03  -0.04    -0.01  -0.02   0.02
     4   6     0.01   0.01  -0.01    -0.01   0.08   0.03    -0.01  -0.03  -0.01
     5   6    -0.00  -0.00   0.00     0.01   0.04   0.06     0.01   0.01  -0.04
     6   6    -0.01  -0.00   0.01    -0.08   0.04  -0.00     0.03  -0.00  -0.02
     7   1    -0.03  -0.00   0.03     0.02  -0.16  -0.06    -0.00   0.06   0.01
     8   1    -0.00   0.00  -0.00    -0.10   0.02  -0.08     0.01  -0.03   0.05
     9   6    -0.01   0.01   0.01     0.04  -0.09  -0.03    -0.02   0.03   0.00
    10   6     0.00   0.01  -0.01     0.03   0.08   0.07    -0.02  -0.03  -0.01
    11   1    -0.02  -0.01   0.02    -0.18   0.11   0.02     0.08  -0.01  -0.04
    12   6    -0.01   0.02  -0.01     0.11   0.01   0.07    -0.04  -0.01  -0.02
    13   6    -0.02   0.01   0.01     0.10  -0.09   0.03    -0.03   0.04  -0.02
    14   1    -0.01   0.02  -0.01     0.18   0.01   0.14    -0.07  -0.01  -0.04
    15   1    -0.04  -0.01   0.02     0.13  -0.16   0.05    -0.02   0.07  -0.04
    16   6    -0.01  -0.01   0.00    -0.01   0.01   0.04     0.01   0.01  -0.00
    17   8    -0.01   0.00  -0.01    -0.10   0.02  -0.06     0.04   0.01   0.03
    18   6    -0.01  -0.01   0.01     0.05  -0.04   0.05    -0.01   0.03  -0.02
    19   8     0.01   0.00  -0.01     0.15  -0.08   0.00    -0.07   0.05   0.01
    20   7    -0.03  -0.04   0.04     0.01  -0.09   0.05     0.01   0.04  -0.01
    21   6    -0.01  -0.01   0.03     0.04  -0.17  -0.06    -0.03  -0.01   0.03
    22   1    -0.01  -0.01   0.03     0.05  -0.36  -0.00     0.01   0.11  -0.00
    23   1     0.00  -0.02   0.04     0.03  -0.16  -0.25    -0.10  -0.00   0.16
    24   6    -0.00  -0.02   0.02     0.08  -0.07   0.02    -0.01  -0.14  -0.02
    25   1    -0.01  -0.02   0.05     0.08  -0.01   0.09    -0.02  -0.15  -0.01
    26   1     0.01  -0.05   0.03     0.18  -0.10   0.01    -0.04  -0.17  -0.01
    27   6     0.02  -0.02  -0.02    -0.01  -0.04  -0.00    -0.03  -0.12  -0.02
    28   1     0.04  -0.00  -0.02    -0.02  -0.03  -0.01    -0.03  -0.17  -0.00
    29   1     0.01  -0.02   0.00    -0.05  -0.11   0.01    -0.08  -0.15   0.04
    30   6    -0.00   0.02  -0.05    -0.05   0.05  -0.04    -0.09   0.06  -0.03
    31   1     0.00  -0.03  -0.11    -0.03  -0.00  -0.15    -0.06  -0.02  -0.22
    32   1    -0.06   0.09  -0.06    -0.12   0.14  -0.06    -0.18   0.25  -0.08
    33   6     0.01   0.03   0.05     0.04   0.05   0.01     0.01   0.07   0.11
    34   1     0.05  -0.04   0.07     0.08   0.05   0.01     0.14   0.05   0.13
    35   7    -0.04   0.10  -0.02     0.07  -0.06  -0.00    -0.03  -0.04  -0.06
    36   1     0.22   0.02   0.57     0.05  -0.04  -0.22    -0.14   0.00  -0.51
    37   1    -0.03  -0.46  -0.54     0.05   0.09   0.15     0.05   0.29   0.14
    38   6     0.01   0.01   0.04     0.04   0.06   0.02     0.05   0.08   0.09
    39   8     0.05  -0.04   0.02     0.07  -0.04   0.05     0.16  -0.07   0.06
    40   8     0.01   0.01  -0.04    -0.08   0.09  -0.05    -0.05   0.11  -0.08
    41   1     0.06  -0.04  -0.14    -0.15  -0.02  -0.05    -0.04  -0.05  -0.22
    42   7    -0.01  -0.02  -0.01    -0.15   0.06  -0.05     0.05  -0.00   0.00
    43   7    -0.00  -0.02  -0.01    -0.10   0.07  -0.01     0.03  -0.02  -0.00
    44   7     0.02  -0.01  -0.00    -0.01   0.09   0.07     0.00  -0.03  -0.02
                     22                     23                     24
                      A                      A                      A
 Frequencies --    318.1190               327.0002               362.1605
 Red. masses --      3.7494                 5.2265                 6.4057
 Frc consts  --      0.2236                 0.3293                 0.4950
 IR Inten    --      3.6212                 1.4563                 2.0593
  Atom  AN      X      Y      Z        X      Y      Z        X      Y      Z
     1   6    -0.05  -0.05   0.04     0.13   0.14  -0.14    -0.10   0.01  -0.04
     2   6    -0.05  -0.04   0.03     0.10   0.10  -0.10    -0.11   0.05  -0.04
     3   6    -0.03  -0.04   0.03     0.07   0.07  -0.08    -0.02   0.06   0.03
     4   6    -0.01  -0.00   0.03     0.00  -0.00  -0.00     0.02  -0.01  -0.03
     5   6     0.06   0.07  -0.04    -0.16  -0.18   0.18     0.04  -0.01  -0.04
     6   6     0.03   0.05  -0.03    -0.10  -0.11   0.12    -0.05  -0.01  -0.09
     7   1     0.05  -0.04  -0.05     0.01   0.00  -0.01    -0.13   0.18   0.14
     8   1    -0.08  -0.07   0.06     0.20   0.22  -0.22    -0.06  -0.01   0.03
     9   6     0.04  -0.04  -0.01     0.02   0.01  -0.02    -0.12   0.15   0.07
    10   6    -0.02  -0.02   0.05     0.05   0.05  -0.06     0.03  -0.05  -0.02
    11   1     0.05   0.10  -0.07    -0.16  -0.19   0.19    -0.08   0.03  -0.08
    12   6     0.03  -0.04   0.04     0.02   0.02  -0.02    -0.12   0.09  -0.03
    13   6     0.07  -0.02  -0.02    -0.05  -0.06   0.06    -0.14   0.17   0.04
    14   1     0.06  -0.04   0.07     0.03   0.02  -0.02    -0.24   0.09  -0.14
    15   1     0.13   0.02  -0.07    -0.13  -0.15   0.15    -0.16   0.20   0.04
    16   6    -0.01   0.01  -0.01     0.03   0.03  -0.03     0.10  -0.10   0.04
    17   8    -0.03   0.00  -0.02    -0.01  -0.02   0.03     0.22  -0.08   0.10
    18   6     0.04   0.03  -0.03    -0.05  -0.04   0.05     0.06  -0.06   0.01
    19   8     0.03  -0.06   0.03     0.03   0.06  -0.05     0.06  -0.06   0.00
    20   7     0.02   0.03  -0.04     0.05   0.07  -0.07     0.08  -0.10   0.07
    21   6    -0.02   0.00  -0.04     0.03   0.04  -0.05     0.20   0.01   0.04
    22   1    -0.05  -0.09  -0.00     0.02   0.04  -0.05     0.25   0.12   0.00
    23   1     0.00   0.01  -0.14     0.00   0.05  -0.05     0.27  -0.00   0.16
    24   6    -0.03   0.09   0.02     0.04   0.03  -0.01     0.12   0.04  -0.05
    25   1    -0.01   0.14   0.02     0.05   0.07   0.03     0.18   0.10  -0.11
    26   1     0.00   0.10   0.01     0.10   0.02  -0.02     0.08   0.06  -0.05
    27   6    -0.07   0.09   0.01    -0.04   0.03   0.00     0.01   0.04  -0.00
    28   1    -0.02   0.11  -0.01    -0.02   0.02   0.00     0.01   0.02   0.00
    29   1    -0.07   0.10   0.01    -0.06  -0.00   0.02    -0.02   0.01   0.01
    30   6    -0.08  -0.02  -0.07    -0.08   0.01  -0.03    -0.03   0.02  -0.00
    31   1    -0.11  -0.16  -0.19    -0.08  -0.08  -0.13    -0.03  -0.01  -0.04
    32   1    -0.24   0.09  -0.08    -0.17   0.11  -0.05    -0.06   0.07  -0.01
    33   6    -0.02  -0.06   0.07    -0.04  -0.02   0.08    -0.05  -0.01   0.05
    34   1     0.02  -0.13   0.10     0.01  -0.05   0.09    -0.03  -0.01   0.05
    35   7    -0.13   0.16  -0.06    -0.10   0.02  -0.03    -0.07  -0.06   0.01
    36   1    -0.37   0.21  -0.16    -0.24   0.05  -0.26    -0.09  -0.05  -0.15
    37   1     0.04   0.37  -0.11    -0.01   0.23   0.04    -0.05   0.03   0.07
    38   6     0.01  -0.08   0.08    -0.01  -0.04   0.07    -0.03  -0.03   0.03
    39   8     0.06  -0.07  -0.01     0.05  -0.05  -0.00    -0.00  -0.02  -0.02
    40   8     0.14  -0.11   0.04     0.07  -0.05   0.02     0.04  -0.05   0.03
    41   1     0.29  -0.06  -0.08     0.17  -0.04  -0.09     0.12  -0.01  -0.03
    42   7     0.02   0.06  -0.03    -0.07  -0.09   0.10    -0.14   0.01  -0.13
    43   7     0.00   0.04   0.00    -0.02  -0.03   0.04    -0.12   0.01  -0.10
    44   7    -0.03   0.01   0.02     0.01   0.02  -0.02     0.06   0.02   0.07
                     25                     26                     27
                      A                      A                      A
 Frequencies --    396.3080               401.1665               424.3779
 Red. masses --      5.7524                 5.9270                 3.9971
 Frc consts  --      0.5323                 0.5620                 0.4241
 IR Inten    --     20.0578                27.3977                 1.4097
  Atom  AN      X      Y      Z        X      Y      Z        X      Y      Z
     1   6     0.06  -0.12  -0.02     0.00  -0.02  -0.06     0.03  -0.07  -0.05
     2   6     0.03  -0.05  -0.03    -0.01  -0.03  -0.04    -0.00  -0.04  -0.04
     3   6    -0.04  -0.02  -0.09     0.00  -0.05  -0.02    -0.03  -0.04  -0.05
     4   6    -0.03   0.01  -0.06     0.02  -0.06   0.00    -0.01   0.01   0.00
     5   6     0.07  -0.06  -0.06     0.03  -0.03   0.05     0.06  -0.02   0.03
     6   6     0.08  -0.09  -0.05    -0.02  -0.03  -0.01     0.03  -0.03  -0.00
     7   1    -0.13  -0.03  -0.01     0.01   0.10  -0.02    -0.03   0.00  -0.05
     8   1     0.05  -0.15   0.02     0.02   0.01  -0.10     0.03  -0.07  -0.07
     9   6    -0.10  -0.02  -0.06    -0.02   0.02  -0.05    -0.04  -0.03  -0.07
    10   6    -0.09   0.03  -0.01    -0.03  -0.04  -0.10    -0.05   0.03  -0.02
    11   1     0.07  -0.10  -0.04    -0.04   0.01  -0.01    -0.01   0.01   0.00
    12   6    -0.06   0.04  -0.06    -0.10  -0.04  -0.09    -0.06   0.01  -0.03
    13   6    -0.08  -0.00  -0.09    -0.10  -0.01  -0.08    -0.05  -0.03  -0.08
    14   1    -0.05   0.04  -0.06    -0.13  -0.05  -0.11    -0.03   0.01  -0.00
    15   1    -0.06  -0.03  -0.09    -0.13   0.03  -0.08    -0.04  -0.05  -0.08
    16   6    -0.09   0.11   0.12    -0.00   0.07  -0.01    -0.05   0.06   0.00
    17   8    -0.12   0.16   0.04     0.19   0.04   0.25    -0.12   0.06  -0.05
    18   6     0.07   0.02   0.12     0.08   0.06   0.10     0.08  -0.01   0.05
    19   8    -0.06   0.19   0.12     0.21  -0.08   0.10     0.20  -0.14   0.05
    20   7     0.03  -0.03   0.18    -0.03   0.15  -0.04     0.01   0.03   0.01
    21   6     0.14  -0.13  -0.10    -0.17  -0.10  -0.08     0.03   0.19   0.17
    22   1     0.21  -0.40  -0.02    -0.18  -0.38  -0.00     0.03   0.54   0.06
    23   1     0.14  -0.11  -0.37    -0.28  -0.07  -0.38     0.07   0.16   0.54
    24   6     0.15   0.03  -0.02    -0.11  -0.03   0.03    -0.03   0.02   0.02
    25   1     0.17   0.12   0.06    -0.14  -0.06   0.05    -0.03  -0.03  -0.06
    26   1     0.29   0.04  -0.04    -0.06  -0.00   0.01    -0.19  -0.02   0.05
    27   6     0.01   0.04   0.01    -0.06  -0.02   0.03     0.05  -0.00  -0.04
    28   1    -0.01   0.06   0.00    -0.06  -0.01   0.02     0.07   0.01  -0.04
    29   1    -0.01  -0.02  -0.01    -0.04   0.00   0.01     0.06   0.03  -0.03
    30   6    -0.02   0.03  -0.01    -0.01  -0.03   0.01     0.04   0.00  -0.01
    31   1    -0.01  -0.00  -0.06    -0.03  -0.04   0.05     0.05   0.03   0.00
    32   1    -0.06   0.05  -0.02    -0.02  -0.10   0.03     0.09   0.04  -0.02
    33   6    -0.02  -0.00   0.01     0.06  -0.01  -0.07    -0.03   0.00   0.05
    34   1    -0.03   0.00   0.01     0.03  -0.01  -0.07    -0.01  -0.01   0.06
    35   7    -0.03  -0.03   0.01     0.07   0.10  -0.02    -0.05  -0.07   0.01
    36   1    -0.02  -0.03  -0.03     0.03   0.10   0.17    -0.02  -0.07  -0.12
    37   1    -0.03  -0.01   0.03     0.08   0.04  -0.07    -0.05  -0.03   0.04
    38   6    -0.02  -0.03   0.00     0.04   0.01  -0.04    -0.02   0.01   0.04
    39   8    -0.02  -0.01  -0.01     0.00   0.01   0.02     0.01   0.01  -0.01
    40   8     0.03  -0.05   0.03    -0.02   0.03  -0.01    -0.01   0.01  -0.01
    41   1     0.07   0.01   0.02    -0.11   0.01   0.08     0.05  -0.02  -0.12
    42   7     0.05  -0.01   0.03    -0.02   0.02   0.01    -0.00   0.01   0.01
    43   7     0.05  -0.02   0.03    -0.00   0.03   0.03     0.02   0.01   0.02
    44   7    -0.02  -0.02  -0.04    -0.03   0.03   0.00    -0.02   0.01  -0.01
                     28                     29                     30
                      A                      A                      A
 Frequencies --    449.7878               464.0522               472.4005
 Red. masses --      4.5905                 3.8852                 3.5529
 Frc consts  --      0.5472                 0.4929                 0.4671
 IR Inten    --      7.5903                 9.4501                 2.2593
  Atom  AN      X      Y      Z        X      Y      Z        X      Y      Z
     1   6     0.04  -0.03  -0.03    -0.07  -0.02   0.07     0.07   0.10  -0.08
     2   6    -0.10  -0.09   0.08    -0.05  -0.07   0.08    -0.05  -0.06   0.07
     3   6    -0.09  -0.07   0.07     0.02   0.00  -0.00    -0.11  -0.13   0.13
     4   6    -0.04  -0.03   0.02    -0.04  -0.05   0.05     0.09   0.10  -0.09
     5   6    -0.02  -0.11   0.04    -0.08  -0.03   0.08     0.02   0.05  -0.03
     6   6     0.06  -0.03  -0.06     0.06   0.14  -0.08    -0.08  -0.07   0.09
     7   1     0.19   0.27  -0.24     0.15   0.14  -0.16     0.04   0.03  -0.04
     8   1     0.18   0.09  -0.12    -0.08  -0.01   0.03     0.21   0.27  -0.25
     9   6     0.06   0.12  -0.09     0.09   0.07  -0.09    -0.01  -0.02   0.02
    10   6     0.14   0.17  -0.12     0.08   0.09  -0.12     0.07   0.07  -0.08
    11   1     0.15   0.08  -0.17     0.22   0.31  -0.25    -0.19  -0.19   0.21
    12   6    -0.05  -0.02   0.08     0.02   0.01  -0.04    -0.09  -0.11   0.10
    13   6    -0.05  -0.02   0.07    -0.07  -0.10   0.07     0.08   0.08  -0.09
    14   1    -0.14  -0.10   0.15     0.03   0.00  -0.03    -0.25  -0.29   0.28
    15   1    -0.06  -0.06   0.10    -0.19  -0.21   0.18     0.19   0.21  -0.21
    16   6     0.10   0.10  -0.07     0.01   0.02  -0.04     0.01   0.02  -0.02
    17   8    -0.11  -0.03  -0.03     0.03  -0.02   0.06     0.01  -0.01   0.02
    18   6     0.04  -0.03   0.01    -0.07  -0.03   0.04    -0.01   0.01  -0.00
    19   8    -0.03   0.06   0.01     0.02  -0.01  -0.02    -0.00   0.00  -0.01
    20   7     0.11  -0.01   0.01    -0.10  -0.04   0.04    -0.05  -0.04   0.04
    21   6     0.06  -0.06   0.12    -0.04   0.01  -0.08    -0.02  -0.01  -0.03
    22   1     0.07   0.04   0.09    -0.04  -0.13  -0.04    -0.02  -0.11  -0.00
    23   1     0.03  -0.06   0.20     0.03   0.01  -0.21     0.02  -0.01  -0.13
    24   6    -0.04  -0.04  -0.01     0.03   0.06   0.01     0.01   0.04   0.01
    25   1     0.05  -0.04  -0.22    -0.03   0.06   0.15    -0.02   0.03   0.06
    26   1    -0.23   0.03  -0.01     0.17   0.00   0.01     0.06   0.02   0.01
    27   6    -0.10  -0.01   0.05     0.11   0.03  -0.06     0.06   0.02  -0.04
    28   1    -0.11  -0.05   0.06     0.13   0.08  -0.08     0.08   0.06  -0.05
    29   1    -0.12  -0.03   0.06     0.13   0.06  -0.08     0.08   0.05  -0.05
    30   6    -0.07  -0.01   0.04     0.09   0.01  -0.05     0.06  -0.00  -0.03
    31   1    -0.11  -0.04   0.07     0.12   0.04  -0.07     0.08   0.02  -0.04
    32   1    -0.09  -0.09   0.06     0.12   0.09  -0.07     0.08   0.05  -0.05
    33   6     0.04  -0.00  -0.07    -0.04   0.00   0.08    -0.02  -0.00   0.04
    34   1     0.02   0.03  -0.09    -0.01  -0.04   0.10    -0.01  -0.03   0.06
    35   7     0.07   0.10  -0.02    -0.07  -0.10   0.02    -0.04  -0.06   0.01
    36   1     0.01   0.10   0.16    -0.01  -0.11  -0.17    -0.01  -0.06  -0.09
    37   1     0.07   0.06  -0.06    -0.08  -0.07   0.06    -0.04  -0.04   0.03
    38   6     0.04  -0.01  -0.05    -0.05   0.01   0.06    -0.03   0.01   0.04
    39   8    -0.00  -0.01   0.02     0.00   0.01  -0.02     0.00   0.01  -0.01
    40   8     0.01  -0.00   0.01    -0.01   0.00  -0.01    -0.01   0.01  -0.01
    41   1    -0.10   0.03   0.17     0.12  -0.04  -0.20     0.07  -0.03  -0.13
    42   7    -0.01   0.02  -0.05     0.04   0.02  -0.00     0.02   0.01  -0.00
    43   7    -0.02   0.02  -0.04     0.03   0.01   0.01     0.02   0.01  -0.01
    44   7     0.00  -0.01   0.02    -0.01  -0.01  -0.00    -0.01  -0.01   0.00
                     31                     32                     33
                      A                      A                      A
 Frequencies --    499.7610               510.1169               524.5016
 Red. masses --      7.1211                 5.1055                 4.3301
 Frc consts  --      1.0479                 0.7828                 0.7019
 IR Inten    --      2.6568                15.1387                 8.1036
  Atom  AN      X      Y      Z        X      Y      Z        X      Y      Z
     1   6    -0.01  -0.02  -0.02     0.12  -0.03   0.07     0.05   0.05   0.10
     2   6    -0.04   0.07  -0.02     0.01   0.09   0.04    -0.03   0.07   0.11
     3   6     0.15   0.02   0.12    -0.09   0.08  -0.02    -0.01   0.05   0.06
     4   6     0.12  -0.14   0.02    -0.13   0.01  -0.04    -0.00   0.01  -0.07
     5   6     0.11  -0.09   0.00     0.01  -0.10  -0.10     0.00  -0.05  -0.03
     6   6     0.01  -0.11  -0.09     0.12  -0.14  -0.01     0.09  -0.04  -0.00
     7   1     0.18   0.07   0.23    -0.04  -0.07  -0.11     0.07  -0.09   0.01
     8   1     0.08  -0.04   0.09     0.21  -0.05   0.18     0.15   0.07   0.15
     9   6     0.18   0.02   0.18    -0.04   0.02  -0.02     0.08  -0.04   0.04
    10   6    -0.00  -0.14  -0.09    -0.03   0.05   0.07    -0.04  -0.00  -0.09
    11   1    -0.01  -0.11  -0.09     0.21  -0.24  -0.01     0.18  -0.11  -0.02
    12   6     0.01  -0.12  -0.14     0.07   0.02   0.07     0.03  -0.12  -0.07
    13   6     0.02   0.01   0.04     0.07   0.01   0.08     0.06  -0.05  -0.01
    14   1    -0.03  -0.09  -0.22     0.12   0.06   0.06     0.03  -0.15  -0.02
    15   1    -0.14   0.17   0.05     0.11  -0.04   0.07    -0.02   0.02  -0.00
    16   6    -0.02  -0.03  -0.07    -0.00   0.11   0.07    -0.09   0.05   0.02
    17   8    -0.12  -0.04  -0.15     0.01   0.11   0.12    -0.01   0.08   0.06
    18   6     0.10   0.07   0.11     0.01  -0.07  -0.12    -0.03  -0.04   0.01
    19   8    -0.03   0.18   0.16    -0.03  -0.09  -0.09     0.04  -0.04  -0.02
    20   7     0.01   0.05  -0.00     0.06   0.04  -0.02    -0.10  -0.00   0.02
    21   6    -0.07  -0.00   0.01    -0.03  -0.05   0.03    -0.03   0.09  -0.05
    22   1    -0.11  -0.14   0.06    -0.11  -0.22   0.09     0.03   0.27  -0.11
    23   1    -0.05  -0.00  -0.13    -0.04  -0.04  -0.19    -0.04   0.08   0.18
    24   6    -0.08   0.06   0.05    -0.09   0.06   0.04     0.06  -0.06  -0.04
    25   1    -0.08   0.01  -0.02    -0.05   0.02  -0.10    -0.03  -0.04   0.19
    26   1    -0.14   0.07   0.05    -0.21   0.11   0.04     0.23  -0.16  -0.03
    27   6     0.05   0.03  -0.04     0.03   0.04  -0.03    -0.00  -0.04   0.01
    28   1     0.08   0.10  -0.06     0.07   0.12  -0.06    -0.02  -0.12   0.03
    29   1     0.11   0.10  -0.08     0.10   0.11  -0.09    -0.07  -0.09   0.08
    30   6     0.08  -0.07  -0.03     0.08  -0.11  -0.03    -0.06   0.15   0.02
    31   1     0.08  -0.03   0.01     0.07  -0.06   0.05    -0.02   0.12  -0.09
    32   1     0.13  -0.07  -0.04     0.14  -0.13  -0.03    -0.11   0.23  -0.00
    33   6    -0.01  -0.05   0.04    -0.00  -0.08   0.04    -0.01   0.12  -0.02
    34   1     0.02  -0.13   0.08     0.03  -0.19   0.08    -0.04   0.26  -0.08
    35   7    -0.04  -0.04   0.01    -0.04  -0.03   0.01     0.04   0.01  -0.01
    36   1    -0.05  -0.04  -0.05    -0.08  -0.02  -0.02     0.13  -0.01  -0.04
    37   1    -0.02  -0.01   0.00    -0.00   0.01  -0.01    -0.03  -0.04   0.04
    38   6    -0.01   0.03   0.06    -0.01   0.04   0.07    -0.01  -0.04  -0.07
    39   8     0.02   0.04  -0.01     0.03   0.06  -0.00    -0.04  -0.08  -0.00
    40   8    -0.05   0.04  -0.04    -0.06   0.06  -0.05     0.08  -0.08   0.07
    41   1     0.03  -0.09  -0.23     0.01  -0.12  -0.27     0.03   0.16   0.31
    42   7    -0.12   0.03  -0.06    -0.04  -0.03  -0.04    -0.03   0.00  -0.05
    43   7    -0.15   0.05  -0.08    -0.11  -0.03  -0.12    -0.13  -0.00  -0.12
    44   7     0.01   0.07   0.08     0.06  -0.01   0.04     0.05   0.01   0.06
                     34                     35                     36
                      A                      A                      A
 Frequencies --    554.3708               557.4738               573.8694
 Red. masses --     13.4909                 3.4243                 1.7290
 Frc consts  --      2.4428                 0.6270                 0.3355
 IR Inten    --      9.0220                19.0200                42.4679
  Atom  AN      X      Y      Z        X      Y      Z        X      Y      Z
     1   6    -0.00  -0.01  -0.01     0.01  -0.06  -0.07    -0.00  -0.02  -0.01
     2   6     0.01   0.01  -0.01     0.02  -0.00  -0.08    -0.01  -0.01  -0.01
     3   6     0.01   0.00  -0.00    -0.00  -0.02   0.01     0.01  -0.00   0.00
     4   6    -0.02  -0.02   0.02    -0.03  -0.05   0.06     0.01  -0.00  -0.00
     5   6     0.02   0.02  -0.02     0.04  -0.00  -0.04     0.00  -0.01  -0.00
     6   6    -0.01  -0.02   0.01    -0.03  -0.07  -0.02    -0.00  -0.01  -0.02
     7   1     0.03   0.04  -0.03     0.04   0.11  -0.03    -0.00   0.01   0.02
     8   1    -0.03  -0.05   0.03     0.00  -0.08  -0.05     0.00  -0.02  -0.01
     9   6     0.00   0.01  -0.00    -0.01   0.05   0.01     0.00   0.01   0.01
    10   6    -0.01  -0.01   0.01     0.03   0.01   0.06     0.01   0.00   0.01
    11   1    -0.05  -0.06   0.05    -0.09  -0.08   0.02    -0.01  -0.00  -0.02
    12   6     0.01   0.02  -0.01     0.02   0.07   0.05     0.00   0.01   0.01
    13   6    -0.01  -0.01   0.02    -0.01   0.03   0.08     0.01   0.01   0.02
    14   1     0.05   0.06  -0.05     0.04   0.12  -0.02    -0.01   0.00   0.01
    15   1    -0.01  -0.02   0.03     0.03   0.01   0.07     0.01   0.01   0.02
    16   6    -0.00  -0.00   0.00     0.04   0.02  -0.01    -0.00   0.00   0.00
    17   8     0.00   0.00  -0.00    -0.01  -0.01  -0.00    -0.00   0.00   0.00
    18   6     0.01   0.01  -0.01     0.04   0.03  -0.05    -0.00  -0.00  -0.00
[...]
    32664.1462    0.000000D+00
    32666.1462    0.000000D+00
    32668.1462    0.000000D+00
    32670.1462    0.000000D+00
    32672.1462    0.000000D+00
    32674.1462    0.000000D+00
    32676.1462    0.000000D+00
    32678.1462    0.000000D+00
    32680.1462    0.000000D+00
    32682.1462    0.000000D+00
    32684.1462    0.000000D+00
    32686.1462    0.000000D+00
    32688.1462    0.000000D+00
    32690.1462    0.000000D+00
    32692.1462    0.000000D+00
    32694.1462    0.000000D+00
    32696.1462    0.000000D+00
    32698.1462    0.000000D+00
    32700.1462    0.000000D+00
    32702.1462    0.000000D+00
    32704.1462    0.000000D+00
    32706.1462    0.000000D+00
    32708.1462    0.000000D+00
    32710.1462    0.000000D+00
    32712.1462    0.000000D+00
    32714.1462    0.000000D+00
    32716.1462    0.000000D+00
    32718.1462    0.000000D+00
    32720.1462    0.000000D+00
    32722.1462    0.000000D+00
    32724.1462    0.000000D+00
    32726.1462    0.000000D+00
    32728.1462    0.000000D+00
    32730.1462    0.000000D+00
    32732.1462    0.000000D+00
    32734.1462    0.000000D+00
    32736.1462    0.000000D+00
    32738.1462    0.000000D+00
    32740.1462    0.000000D+00
    32742.1462    0.000000D+00
    32744.1462    0.000000D+00
    32746.1462    0.000000D+00
    32748.1462    0.000000D+00
    32750.1462    0.000000D+00
    32752.1462    0.000000D+00
    32754.1462    0.000000D+00
    32756.1462    0.000000D+00
    32758.1462    0.000000D+00
    32760.1462    0.000000D+00
    32762.1462    0.000000D+00
    32764.1462    0.000000D+00
    32766.1462    0.000000D+00
    32768.1462    0.000000D+00
    32770.1462    0.000000D+00
    32772.1462    0.000000D+00
    32774.1462    0.000000D+00
    32776.1462    0.000000D+00
    32778.1462    0.000000D+00
    32780.1462    0.000000D+00
    32782.1462    0.000000D+00
    32784.1462    0.000000D+00
    32786.1462    0.000000D+00
    32788.1462    0.000000D+00
    32790.1462    0.000000D+00
    32792.1462    0.000000D+00
    32794.1462    0.000000D+00
    32796.1462    0.000000D+00
    32798.1462    0.000000D+00
    32800.1462    0.000000D+00
    32802.1462    0.000000D+00
    32804.1462    0.000000D+00
    32806.1462    0.000000D+00
    32808.1462    0.000000D+00
    32810.1462    0.000000D+00
    32812.1462    0.000000D+00
    32814.1462    0.000000D+00
    32816.1462    0.000000D+00
    32818.1462    0.000000D+00
    32820.1462    0.000000D+00
    32822.1462    0.000000D+00
    32824.1462    0.000000D+00
    32826.1462    0.000000D+00
    32828.1462    0.000000D+00
    32830.1462    0.000000D+00
    32832.1462    0.000000D+00
    32834.1462    0.000000D+00
    32836.1462    0.000000D+00
    32838.1462    0.000000D+00
    32840.1462    0.000000D+00
    32842.1462    0.000000D+00
    32844.1462    0.000000D+00
    32846.1462    0.000000D+00
    32848.1462    0.000000D+00
    32850.1462    0.000000D+00
    32852.1462    0.000000D+00
    32854.1462    0.000000D+00
    32856.1462    0.000000D+00
    32858.1462    0.000000D+00
    32860.1462    0.000000D+00
    32862.1462    0.000000D+00
    32864.1462    0.000000D+00
    32866.1462    0.000000D+00
    32868.1462    0.000000D+00
    32870.1462    0.000000D+00
    32872.1462    0.000000D+00
    32874.1462    0.000000D+00
    32876.1462    0.000000D+00
    32878.1462    0.000000D+00
    32880.1462    0.000000D+00
    32882.1462    0.000000D+00
    32884.1462    0.000000D+00
    32886.1462    0.000000D+00
    32888.1462    0.000000D+00
    32890.1462    0.000000D+00
    32892.1462    0.000000D+00
    32894.1462    0.000000D+00
    32896.1462    0.000000D+00
    32898.1462    0.000000D+00
    32900.1462    0.000000D+00
    32902.1462    0.000000D+00
    32904.1462    0.000000D+00
    32906.1462    0.000000D+00
    32908.1462    0.000000D+00
    32910.1462    0.000000D+00
    32912.1462    0.000000D+00
    32914.1462    0.000000D+00
    32916.1462    0.000000D+00
    32918.1462    0.000000D+00
    32920.1462    0.000000D+00
    32922.1462    0.000000D+00
    32924.1462    0.000000D+00
    32926.1462    0.000000D+00
    32928.1462    0.000000D+00
    32930.1462    0.000000D+00
    32932.1462    0.000000D+00
    32934.1462    0.000000D+00
    32936.1462    0.000000D+00
    32938.1462    0.000000D+00
    32940.1462    0.000000D+00
    32942.1462    0.000000D+00
    32944.1462    0.000000D+00
    32946.1462    0.000000D+00
    32948.1462    0.000000D+00
    32950.1462    0.000000D+00
    32952.1462    0.000000D+00
    32954.1462    0.000000D+00
    32956.1462    0.000000D+00
    32958.1462    0.000000D+00
    32960.1462    0.000000D+00
    32962.1462    0.000000D+00
    32964.1462    0.000000D+00
    32966.1462    0.000000D+00
    32968.1462    0.000000D+00
    32970.1462    0.000000D+00
    32972.1462    0.000000D+00
    32974.1462    0.000000D+00
    32976.1462    0.000000D+00
    32978.1462    0.000000D+00
    32980.1462    0.000000D+00
    32982.1462    0.000000D+00
    32984.1462    0.000000D+00
    32986.1462    0.000000D+00
    32988.1462    0.000000D+00
    32990.1462    0.000000D+00
    32992.1462    0.000000D+00
    32994.1462    0.000000D+00
    32996.1462    0.000000D+00
    32998.1462    0.000000D+00
    33000.1462    0.000000D+00
    33002.1462    0.000000D+00
    33004.1462    0.000000D+00
    33006.1462    0.000000D+00
    33008.1462    0.000000D+00
    33010.1462    0.000000D+00
    33012.1462    0.000000D+00
    33014.1462    0.000000D+00
    33016.1462    0.000000D+00
    33018.1462    0.000000D+00
    33020.1462    0.000000D+00
    33022.1462    0.000000D+00
    33024.1462    0.000000D+00
    33026.1462    0.000000D+00
    33028.1462    0.000000D+00
    33030.1462    0.000000D+00
    33032.1462    0.000000D+00
    33034.1462    0.000000D+00
    33036.1462    0.000000D+00
    33038.1462    0.000000D+00
    33040.1462    0.000000D+00
    33042.1462    0.000000D+00
    33044.1462    0.000000D+00
    33046.1462    0.000000D+00
    33048.1462    0.000000D+00
    33050.1462    0.000000D+00
    33052.1462    0.000000D+00
    33054.1462    0.000000D+00
    33056.1462    0.000000D+00
    33058.1462    0.000000D+00
    33060.1462    0.000000D+00
    33062.1462    0.000000D+00
    33064.1462    0.000000D+00
    33066.1462    0.000000D+00
    33068.1462    0.000000D+00
    33070.1462    0.000000D+00
    33072.1462    0.000000D+00
    33074.1462    0.000000D+00
    33076.1462    0.000000D+00
    33078.1462    0.000000D+00
    33080.1462    0.000000D+00
    33082.1462    0.000000D+00
    33084.1462    0.000000D+00
    33086.1462    0.000000D+00
    33088.1462    0.000000D+00
    33090.1462    0.000000D+00
    33092.1462    0.000000D+00
    33094.1462    0.000000D+00
    33096.1462    0.000000D+00
    33098.1462    0.000000D+00
    33100.1462    0.000000D+00
    33102.1462    0.000000D+00
    33104.1462    0.000000D+00
    33106.1462    0.000000D+00
    33108.1462    0.000000D+00
    33110.1462    0.000000D+00
    33112.1462    0.000000D+00
    33114.1462    0.000000D+00
    33116.1462    0.000000D+00
    33118.1462    0.000000D+00
    33120.1462    0.000000D+00
    33122.1462    0.000000D+00
    33124.1462    0.000000D+00
    33126.1462    0.000000D+00
    33128.1462    0.000000D+00
    33130.1462    0.000000D+00
    33132.1462    0.000000D+00
    33134.1462    0.000000D+00
    33136.1462    0.000000D+00
    33138.1462    0.000000D+00
    33140.1462    0.000000D+00
    33142.1462    0.000000D+00
    33144.1462    0.000000D+00
    33146.1462    0.000000D+00
    33148.1462    0.000000D+00
    33150.1462    0.000000D+00
    33152.1462    0.000000D+00
    33154.1462    0.000000D+00
    33156.1462    0.000000D+00
    33158.1462    0.000000D+00
    33160.1462    0.000000D+00
    33162.1462    0.000000D+00
    33164.1462    0.000000D+00
    33166.1462    0.000000D+00
    33168.1462    0.000000D+00
    33170.1462    0.000000D+00
    33172.1462    0.000000D+00
    33174.1462    0.000000D+00
    33176.1462    0.000000D+00
    33178.1462    0.000000D+00
    33180.1462    0.000000D+00
    33182.1462    0.000000D+00
    33184.1462    0.000000D+00
    33186.1462    0.000000D+00
    33188.1462    0.000000D+00
    33190.1462    0.000000D+00
    33192.1462    0.000000D+00
    33194.1462    0.000000D+00
    33196.1462    0.000000D+00
    33198.1462    0.000000D+00
    33200.1462    0.000000D+00
    33202.1462    0.000000D+00
    33204.1462    0.000000D+00
    33206.1462    0.000000D+00
    33208.1462    0.000000D+00
    33210.1462    0.000000D+00
    33212.1462    0.000000D+00
    33214.1462    0.000000D+00
    33216.1462    0.000000D+00
    33218.1462    0.000000D+00
    33220.1462    0.000000D+00
    33222.1462    0.000000D+00
    33224.1462    0.000000D+00
    33226.1462    0.000000D+00
    33228.1462    0.000000D+00
    33230.1462    0.000000D+00
    33232.1462    0.000000D+00
    33234.1462    0.000000D+00
    33236.1462    0.000000D+00
    33238.1462    0.000000D+00
    33240.1462    0.000000D+00
    33242.1462    0.000000D+00
    33244.1462    0.000000D+00
    33246.1462    0.000000D+00
    33248.1462    0.000000D+00
    33250.1462    0.000000D+00
    33252.1462    0.000000D+00
    33254.1462    0.000000D+00
    33256.1462    0.000000D+00
    33258.1462    0.000000D+00
    33260.1462    0.000000D+00
    33262.1462    0.000000D+00
    33264.1462    0.000000D+00
    33266.1462    0.000000D+00
    33268.1462    0.000000D+00
    33270.1462    0.000000D+00
    33272.1462    0.000000D+00
    33274.1462    0.000000D+00
    33276.1462    0.000000D+00
    33278.1462    0.000000D+00
    33280.1462    0.000000D+00
    33282.1462    0.000000D+00
    33284.1462    0.000000D+00
    33286.1462    0.000000D+00
    33288.1462    0.000000D+00
    33290.1462    0.000000D+00
    33292.1462    0.000000D+00
    33294.1462    0.000000D+00
    33296.1462    0.000000D+00
    33298.1462    0.000000D+00
    33300.1462    0.000000D+00
    33302.1462    0.000000D+00
    33304.1462    0.000000D+00
    33306.1462    0.000000D+00
    33308.1462    0.000000D+00
    33310.1462    0.000000D+00
    33312.1462    0.000000D+00
    33314.1462    0.000000D+00
    33316.1462    0.000000D+00
    33318.1462    0.000000D+00
    33320.1462    0.000000D+00
    33322.1462    0.000000D+00
    33324.1462    0.000000D+00
    33326.1462    0.000000D+00
    33328.1462    0.000000D+00
    33330.1462    0.000000D+00
    33332.1462    0.000000D+00
    33334.1462    0.000000D+00
    33336.1462    0.000000D+00
    33338.1462    0.000000D+00
    33340.1462    0.000000D+00
    33342.1462    0.000000D+00
    33344.1462    0.000000D+00
    33346.1462    0.000000D+00
    33348.1462    0.000000D+00
    33350.1462    0.000000D+00
    33352.1462    0.000000D+00
    33354.1462    0.000000D+00
    33356.1462    0.000000D+00
    33358.1462    0.000000D+00
    33360.1462    0.000000D+00
    33362.1462    0.000000D+00
    33364.1462    0.000000D+00
    33366.1462    0.000000D+00
    33368.1462    0.000000D+00
    33370.1462    0.000000D+00
    33372.1462    0.000000D+00
    33374.1462    0.000000D+00
    33376.1462    0.000000D+00
    33378.1462    0.000000D+00
    33380.1462    0.000000D+00
    33382.1462    0.000000D+00
    33384.1462    0.000000D+00
    33386.1462    0.000000D+00
    33388.1462    0.000000D+00
    33390.1462    0.000000D+00
    33392.1462    0.000000D+00
    33394.1462    0.000000D+00
    33396.1462    0.000000D+00
    33398.1462    0.000000D+00
    33400.1462    0.000000D+00
    33402.1462    0.000000D+00
    33404.1462    0.000000D+00
    33406.1462    0.000000D+00
    33408.1462    0.000000D+00
    33410.1462    0.000000D+00
    33412.1462    0.000000D+00
    33414.1462    0.000000D+00
    33416.1462    0.000000D+00
    33418.1462    0.000000D+00
    33420.1462    0.000000D+00
    33422.1462    0.000000D+00
    33424.1462    0.000000D+00
    33426.1462    0.000000D+00
    33428.1462    0.000000D+00
    33430.1462    0.000000D+00
    33432.1462    0.000000D+00
    33434.1462    0.000000D+00
    33436.1462    0.000000D+00
    33438.1462    0.000000D+00
    33440.1462    0.000000D+00
    33442.1462    0.000000D+00
    33444.1462    0.000000D+00
    33446.1462    0.000000D+00
    33448.1462    0.000000D+00
    33450.1462    0.000000D+00
    33452.1462    0.000000D+00
    33454.1462    0.000000D+00
    33456.1462    0.000000D+00
    33458.1462    0.000000D+00
    33460.1462    0.000000D+00
    33462.1462    0.000000D+00
    33464.1462    0.000000D+00
    33466.1462    0.000000D+00
    33468.1462    0.000000D+00
    33470.1462    0.000000D+00
    33472.1462    0.000000D+00
    33474.1462    0.000000D+00
    33476.1462    0.000000D+00
    33478.1462    0.000000D+00
    33480.1462    0.000000D+00
    33482.1462    0.000000D+00
    33484.1462    0.000000D+00
    33486.1462    0.000000D+00
    33488.1462    0.000000D+00
    33490.1462    0.000000D+00
    33492.1462    0.000000D+00
    33494.1462    0.000000D+00
    33496.1462    0.000000D+00
    33498.1462    0.000000D+00
    33500.1462    0.000000D+00
    33502.1462    0.000000D+00
    33504.1462    0.000000D+00
    33506.1462    0.000000D+00
    33508.1462    0.000000D+00
    33510.1462    0.000000D+00
    33512.1462    0.000000D+00
    33514.1462    0.000000D+00
    33516.1462    0.000000D+00
    33518.1462    0.000000D+00
    33520.1462    0.000000D+00
    33522.1462    0.000000D+00
    33524.1462    0.000000D+00
    33526.1462    0.000000D+00
    33528.1462    0.000000D+00
    33530.1462    0.000000D+00
    33532.1462    0.000000D+00
    33534.1462    0.000000D+00
    33536.1462    0.000000D+00
    33538.1462    0.000000D+00
    33540.1462    0.000000D+00
    33542.1462    0.000000D+00
    33544.1462    0.000000D+00
    33546.1462    0.000000D+00
    33548.1462    0.000000D+00
    33550.1462    0.000000D+00
    33552.1462    0.000000D+00
    33554.1462    0.000000D+00
    33556.1462    0.000000D+00
    33558.1462    0.000000D+00
 -----------------------------

 Leave Link  718 at Wed Sep 20 15:32:49 2023, MaxMem=  1073741824 cpu:             238.6 elap:              60.0
 (Enter /trinity/shared/apps/ccipl/gaussian/g16-A03-has-16.9-p/g16/l9999.exe)

 ----------------------------------------------------------------------

 Electric dipole moment (input orientation):
 (Debye = 10**-18 statcoulomb cm , SI units = C m)
                  (au)            (Debye)         (10**-30 SI)
   Tot        0.105673D+01      0.268595D+01      0.895936D+01
   x         -0.517603D+00     -0.131562D+01     -0.438842D+01
   y          0.888597D+00      0.225859D+01      0.753384D+01
   z          0.243248D+00      0.618275D+00      0.206234D+01

 Dipole polarizability, Alpha (input orientation).
 (esu units = cm**3 , SI units = C**2 m**2 J**-1)
 Alpha(0;0):
               (au)            (10**-24 esu)      (10**-40 SI)
   iso        0.264103D+03      0.391361D+02      0.435447D+02
   aniso      0.161775D+03      0.239726D+02      0.266731D+02
   xx         0.305252D+03      0.452336D+02      0.503292D+02
   yx        -0.631411D+02     -0.935654D+01     -0.104106D+02
   yy         0.270489D+03      0.400824D+02      0.445977D+02
   zx         0.310649D+02      0.460335D+01      0.512191D+01
   zy         0.421321D+02      0.624333D+01      0.694664D+01
   zz         0.216569D+03      0.320922D+02      0.357073D+02

 ----------------------------------------------------------------------

 Dipole orientation:
     6         -2.47825126         -2.64070277          5.69551943
     6         -4.80465165         -1.72726021          4.95380579
     6         -5.33073419         -1.24320108          2.35465650
     6         -3.39855952         -1.73146096          0.56995769
     6         -1.02564614         -2.66475398          1.36878345
     6         -0.58769239         -3.10396879          3.89027648
     1         -9.15414653          0.07010010          2.87394145
     1         -2.08757428         -3.00630029          7.67326034
     6         -7.68388020         -0.30255991          1.50081994
     6         -3.86428601         -1.27476626         -2.01901843
     1          1.24413979         -3.81700237          4.46228541
     6         -6.16462274         -0.35927047         -2.80347066
     6         -8.08579169          0.12873941         -1.02681642
     1         -6.45843901         -0.02509265         -4.80188516
     1         -9.89058132          0.85174590         -1.66477727
     6         -1.86323847         -1.77958028         -3.92350151
     8         -2.18619754         -1.41820132         -6.15926229
     6          1.01019158         -3.16999046         -0.48935336
     8          3.07142073         -3.94278298          0.13864559
     7          0.43946524         -2.71129939         -3.02862831
     6          2.42028871         -3.16890899         -4.92609186
     1          3.73666104         -4.51340192         -4.09557727
     1          1.50517095         -4.01854973         -6.56194299
     6          3.77287454         -0.73504606         -5.68441958
     1          5.13741794         -1.21405966         -7.16579926
     1          2.40082686          0.56005398         -6.52929151
     6          5.12837735          0.55065711         -3.48570362
     1          6.47211422         -0.77456410         -2.63357608
     1          3.75774837          1.03634184         -2.01749282
     6          6.49797875          2.94621869         -4.32737986
     1          7.90330033          2.46058591         -5.76980590
     1          5.17191541          4.27271596         -5.19460565
     6          7.86994612          4.28864313         -2.18313184
     1          8.89738176          2.88193098         -1.04174427
     7          9.52081295          6.27861124         -3.17540579
     1         10.48238282          7.12869289         -1.75180322
     1         10.80491550          5.51562978         -4.37520730
     6          6.02184620          5.56299928         -0.39049559
     8          3.76267756          5.54885873         -0.53122705
     8          7.26809776          6.78032163          1.47389516
     1          6.02084573          7.60371545          2.52383021
     7         -6.80559081         -1.20868117          6.64052498
     7         -6.38142100         -1.61349745          8.89990949
     7         -6.18426022         -1.91839286         10.98462206

 Electric dipole moment (dipole orientation):
 (Debye = 10**-18 statcoulomb cm , SI units = C m)
                  (au)            (Debye)         (10**-30 SI)
   Tot        0.105673D+01      0.268595D+01      0.895936D+01
   x          0.000000D+00      0.000000D+00      0.000000D+00
   y          0.000000D+00      0.000000D+00      0.000000D+00
   z          0.105673D+01      0.268595D+01      0.895936D+01

 Dipole polarizability, Alpha (dipole orientation).
 (esu units = cm**3 , SI units = C**2 m**2 J**-1)
 Alpha(0;0):
               (au)            (10**-24 esu)      (10**-40 SI)
   iso        0.264103D+03      0.391361D+02      0.435447D+02
   aniso      0.161775D+03      0.239726D+02      0.266731D+02
   xx         0.284359D+03      0.421377D+02      0.468845D+02
   yx        -0.161324D+02     -0.239058D+01     -0.265988D+01
   yy         0.170659D+03      0.252891D+02      0.281379D+02
   zx        -0.332674D+02     -0.492972D+01     -0.548506D+01
   zy        -0.103680D+02     -0.153639D+01     -0.170946D+01
   zz         0.337291D+03      0.499813D+02      0.556117D+02

 ----------------------------------------------------------------------

 This type of calculation cannot be archived.


 LAW OF COMPENSATION:
      NO CALCULATION IS EVER A COMPLETE FAILURE; IT 
      CAN ALWAYS SERVE AS A BAD EXAMPLE.

                                           -- ANON
 Job cpu time:       0 days  0 hours  4 minutes  6.9 seconds.
 Elapsed time:       0 days  0 hours  1 minutes  3.7 seconds.
 File lengths (MBytes):  RWF=     10 Int=      0 D2E=      0 Chk=     37 Scr=      1
 Normal termination of Gaussian 16 at Wed Sep 20 15:32:49 2023.
