 Entering Gaussian System, Link 0=g16
 Initial command:
 /trinity/shared/apps/ccipl/gaussian/g16-A03-has-16.9-p/g16/l1.exe "/scratch/IMN/latouche-c/optim-PBE0-S0-FREQ-ANH-RAMAN-double-094333/Gau-242443.inp" -scrdir="/scratch/IMN/latouche-c/optim-PBE0-S0-FREQ-ANH-RAMAN-double-094333/"
 Entering Link 1 = /trinity/shared/apps/ccipl/gaussian/g16-A03-has-16.9-p/g16/l1.exe PID=    242446.
  
 Copyright (c) 1988,1990,1992,1993,1995,1998,2003,2009,2016,
            Gaussian, Inc.  All Rights Reserved.
  
 This is part of the Gaussian(R) 16 program.  It is based on
 the Gaussian(R) 09 system (copyright 2009, Gaussian, Inc.),
 the Gaussian(R) 03 system (copyright 2003, Gaussian, Inc.),
 the Gaussian(R) 98 system (copyright 1998, Gaussian, Inc.),
 the Gaussian(R) 94 system (copyright 1995, Gaussian, Inc.),
 the Gaussian 92(TM) system (copyright 1992, Gaussian, Inc.),
 the Gaussian 90(TM) system (copyright 1990, Gaussian, Inc.),
 the Gaussian 88(TM) system (copyright 1988, Gaussian, Inc.),
 the Gaussian 86(TM) system (copyright 1986, Carnegie Mellon
 University), and the Gaussian 82(TM) system (copyright 1983,
 Carnegie Mellon University). Gaussian is a federally registered
 trademark of Gaussian, Inc.
  
 This software contains proprietary and confidential information,
 including trade secrets, belonging to Gaussian, Inc.
  
 This software is provided under written license and may be
 used, copied, transmitted, or stored only in accord with that
 written license.
  
 The following legend is applicable only to US Government
 contracts under FAR:
  
                    RESTRICTED RIGHTS LEGEND
  
 Use, reproduction and disclosure by the US Government is
 subject to restrictions as set forth in subparagraphs (a)
 and (c) of the Commercial Computer Software - Restricted
 Rights clause in FAR 52.227-19.
  
 Gaussian, Inc.
 340 Quinnipiac St., Bldg. 40, Wallingford CT 06492
  
  
 ---------------------------------------------------------------
 Warning -- This program may not be used in any manner that
 competes with the business of Gaussian, Inc. or will provide
 assistance to any competitor of Gaussian, Inc.  The licensee
 of this program is prohibited from giving any competitor of
 Gaussian, Inc. access to this program.  By using this program,
 the user acknowledges that Gaussian, Inc. is engaged in the
 business of creating and licensing software in the field of
 computational chemistry and represents and warrants to the
 licensee that it is not a competitor of Gaussian, Inc. and that
 it will not use this program in any manner prohibited above.
 ---------------------------------------------------------------
  

 Cite this work as:
 Gaussian 16, Revision A.03,
 M. J. Frisch, G. W. Trucks, H. B. Schlegel, G. E. Scuseria, 
 M. A. Robb, J. R. Cheeseman, G. Scalmani, V. Barone, 
 G. A. Petersson, H. Nakatsuji, X. Li, M. Caricato, A. V. Marenich, 
 J. Bloino, B. G. Janesko, R. Gomperts, B. Mennucci, H. P. Hratchian, 
 J. V. Ortiz, A. F. Izmaylov, J. L. Sonnenberg, D. Williams-Young, 
 F. Ding, F. Lipparini, F. Egidi, J. Goings, B. Peng, A. Petrone, 
 T. Henderson, D. Ranasinghe, V. G. Zakrzewski, J. Gao, N. Rega, 
 G. Zheng, W. Liang, M. Hada, M. Ehara, K. Toyota, R. Fukuda, 
 J. Hasegawa, M. Ishida, T. Nakajima, Y. Honda, O. Kitao, H. Nakai, 
 T. Vreven, K. Throssell, J. A. Montgomery, Jr., J. E. Peralta, 
 F. Ogliaro, M. J. Bearpark, J. J. Heyd, E. N. Brothers, K. N. Kudin, 
 V. N. Staroverov, T. A. Keith, R. Kobayashi, J. Normand, 
 K. Raghavachari, A. P. Rendell, J. C. Burant, S. S. Iyengar, 
 J. Tomasi, M. Cossi, J. M. Millam, M. Klene, C. Adamo, R. Cammi, 
 J. W. Ochterski, R. L. Martin, K. Morokuma, O. Farkas, 
 J. B. Foresman, and D. J. Fox, Gaussian, Inc., Wallingford CT, 2016.
 
 ******************************************
 Gaussian 16:  ES64L-G16RevA.03 25-Dec-2016
                26-Sep-2023 
 ******************************************
 %MEM=80GB
 %NprocShared=20
 Will use up to   20 processors via shared memory.
 %chk=optim-PBE0-S0-FREQ-ANH-RAMAN.chk
 ----------------------------------------------------------------------
 #p freq=(savenm,hpmodes,anharm,readanharm,RAMAN) PBE1PBE DEF2TZVP SCF=
 tight INT=ultrafinegrid
 ----------------------------------------------------------------------
 1/10=4,30=1,38=21,80=1/1,6,3;
 2/12=2,17=6,18=5,40=1/2;
 3/5=44,7=101,11=2,25=1,30=1,71=2,74=-13,75=-5,140=1/1,2,3;
 4//1;
 5/5=2,32=2,38=5,98=1/2;
 8/6=4,10=90,11=11/1;
 10/13=10,15=4,60=-2/2;
 11/6=3,8=1,9=11,15=111,16=1/1,2,10;
 10/6=1,60=-2/2;
 6/7=2,8=2,9=2,10=2,28=1/1;
 7/8=10,10=1,25=1,71=2,72=1,92=1/1,2,3,16;
 1/38=20,80=1/6(3);
 7/8=11,25=202,44=-1,71=1,72=1,92=10/16,17;
 1/10=4,30=1,38=20,80=1/3;
 99//99;
 3/5=44,7=101,11=2,25=1,30=1,71=2,74=-13,75=-5,140=1/1,2,3;
 4/5=5,16=3,69=1/1;
 5/5=2,32=2,38=5,98=1/2;
 8/6=4,10=90,11=11/1;
 10/13=10,15=4,60=-2/2;
 11/6=3,8=1,9=11,15=111,16=1/1,2,10;
 10/6=1,60=-2/2;
 6/7=2,8=2,9=2,10=2,28=1/1;
 7/7=1,8=10,10=1,25=1,71=1,72=1,92=1/1,2,3,16;
 1/38=20,80=1/6(-9);
 7/8=11,25=202,44=-1,71=1,72=1,92=10/16,17;
 1/10=4,30=1,38=20,80=1/3;
 99//99;
 Leave Link    1 at Tue Sep 26 09:43:37 2023, MaxMem= 10737418240 cpu:               7.9 elap:               0.5
 (Enter /trinity/shared/apps/ccipl/gaussian/g16-A03-has-16.9-p/g16/l101.exe)
 -----
 he901
 -----
 Symbolic Z-matrix:
 Charge = -2 Multiplicity = 1
 53                   0     0.        2.08817   0. 
 53                   0     0.        0.        4.21554 
 29                   0     0.        0.        1.64415 
 29                   0     0.        0.       -1.64415 
 53                   0     0.       -2.08817   0. 
 53                   0     0.        0.       -4.21554 
 
 ITRead=  0  0  0  0  0  0
 MicOpt= -1 -1 -1 -1 -1 -1
 NAtoms=      6 NQM=        6 NQMF=       0 NMMI=      0 NMMIF=      0
                NMic=       0 NMicF=      0.
                    Isotopes and Nuclear Properties:
 (Nuclear quadrupole moments (NQMom) in fm**2, nuclear magnetic moments (NMagM)
  in nuclear magnetons)

  Atom         1           2           3           4           5           6
 IAtWgt=         127         127          63          63         127         127
 AtmWgt= 126.9004000 126.9004000  62.9295992  62.9295992 126.9004000 126.9004000
 NucSpn=           5           5           3           3           5           5
 AtZEff=  -0.0000000  -0.0000000  -0.0000000  -0.0000000  -0.0000000  -0.0000000
 NQMom=  -71.0000000 -71.0000000 -22.0000000 -22.0000000 -71.0000000 -71.0000000
 NMagM=    2.8132800   2.8132800   2.2233000   2.2233000   2.8132800   2.8132800
 AtZNuc=  53.0000000  53.0000000  29.0000000  29.0000000  53.0000000  53.0000000
 Leave Link  101 at Tue Sep 26 09:43:38 2023, MaxMem= 10737418240 cpu:               3.8 elap:               0.4
 (Enter /trinity/shared/apps/ccipl/gaussian/g16-A03-has-16.9-p/g16/l106.exe)
 Numerical evaluation of third derivatives.
 Nuclear step= 0.010000 Angstroms, electric field step= 0.000333 atomic units, NStep=1.
 Leave Link  106 at Tue Sep 26 09:43:38 2023, MaxMem= 10737418240 cpu:               0.5 elap:               0.1
 (Enter /trinity/shared/apps/ccipl/gaussian/g16-A03-has-16.9-p/g16/l103.exe)

 GradGradGradGradGradGradGradGradGradGradGradGradGradGradGradGradGradGrad
 Berny optimization.
 Initialization pass.
 Trust Radius=3.00D-01 FncErr=1.00D-07 GrdErr=1.00D-07 EigMax=2.50D+02 EigMin=1.00D-04
 Number of steps in this run=      2 maximum allowed number of steps=      2.
 GradGradGradGradGradGradGradGradGradGradGradGradGradGradGradGradGradGrad

 Leave Link  103 at Tue Sep 26 09:43:39 2023, MaxMem= 10737418240 cpu:               1.1 elap:               0.3
 (Enter /trinity/shared/apps/ccipl/gaussian/g16-A03-has-16.9-p/g16/l202.exe)
                          Input orientation:                          
 ---------------------------------------------------------------------
 Center     Atomic      Atomic             Coordinates (Angstroms)
 Number     Number       Type             X           Y           Z
 ---------------------------------------------------------------------
      1         53           0        0.000000    2.088174    0.000000
      2         53           0        0.000000    0.000000    4.215536
      3         29           0        0.000000    0.000000    1.644146
      4         29           0        0.000000    0.000000   -1.644146
      5         53           0        0.000000   -2.088174    0.000000
      6         53           0        0.000000    0.000000   -4.215536
 ---------------------------------------------------------------------
                    Distance matrix (angstroms):
                    1          2          3          4          5
     1  I    0.000000
     2  I    4.704382   0.000000
     3  Cu   2.657760   2.571390   0.000000
     4  Cu   2.657760   5.859682   3.288292   0.000000
     5  I    4.176348   4.704382   2.657760   2.657760   0.000000
     6  I    4.704382   8.431072   5.859682   2.571390   4.704382
                    6
     6  I    0.000000
 Stoichiometry    Cu2I4(2-)
 Framework group  D2H[C2'(I.I),C2"(ICu.CuI)]
 Deg. of freedom     3
 Full point group                 D2H     NOp   8
 Largest Abelian subgroup         D2H     NOp   8
 Largest concise Abelian subgroup D2      NOp   4
                         Standard orientation:                         
 ---------------------------------------------------------------------
 Center     Atomic      Atomic             Coordinates (Angstroms)
 Number     Number       Type             X           Y           Z
 ---------------------------------------------------------------------
      1         53           0        0.000000    2.088174    0.000000
      2         53           0        0.000000    0.000000    4.215536
      3         29           0        0.000000    0.000000    1.644146
      4         29           0        0.000000    0.000000   -1.644146
      5         53           0       -0.000000   -2.088174    0.000000
      6         53           0        0.000000    0.000000   -4.215536
 ---------------------------------------------------------------------
 Rotational constants (GHZ):           0.4566578           0.1041921           0.0848358
 Leave Link  202 at Tue Sep 26 09:43:39 2023, MaxMem= 10737418240 cpu:               5.4 elap:               0.4
 (Enter /trinity/shared/apps/ccipl/gaussian/g16-A03-has-16.9-p/g16/l301.exe)
 Standard basis: def2TZVP (5D, 7F)
 Ernie: Thresh=  0.10000D-02 Tol=  0.10000D-05 Strict=F.
 There are    77 symmetry adapted cartesian basis functions of AG  symmetry.
 There are    24 symmetry adapted cartesian basis functions of B1G symmetry.
 There are    30 symmetry adapted cartesian basis functions of B2G symmetry.
 There are    39 symmetry adapted cartesian basis functions of B3G symmetry.
 There are    15 symmetry adapted cartesian basis functions of AU  symmetry.
 There are    65 symmetry adapted cartesian basis functions of B1U symmetry.
 There are    51 symmetry adapted cartesian basis functions of B2U symmetry.
 There are    39 symmetry adapted cartesian basis functions of B3U symmetry.
 There are    62 symmetry adapted basis functions of AG  symmetry.
 There are    22 symmetry adapted basis functions of B1G symmetry.
 There are    27 symmetry adapted basis functions of B2G symmetry.
 There are    34 symmetry adapted basis functions of B3G symmetry.
 There are    15 symmetry adapted basis functions of AU  symmetry.
 There are    53 symmetry adapted basis functions of B1U symmetry.
 There are    43 symmetry adapted basis functions of B2U symmetry.
 There are    34 symmetry adapted basis functions of B3U symmetry.
   290 basis functions,   640 primitive gaussians,   340 cartesian basis functions
    80 alpha electrons       80 beta electrons
       nuclear repulsion energy      1541.7332863685 Hartrees.
 IExCor= 1009 DFT=T Ex+Corr=PBE1PBE ExCW=0 ScaHFX=  0.250000
 ScaDFX=  0.750000  0.750000  1.000000  1.000000 ScalE2=  1.000000  1.000000
 IRadAn=      5 IRanWt=     -1 IRanGd=            0 ICorTp=0 IEmpDi=  4
 NAtoms=    6 NActive=    6 NUniq=    3 SFac= 4.00D+00 NAtFMM=   60 NAOKFM=F Big=F
 Integral buffers will be    131072 words long.
 Raffenetti 2 integral format.
 Two-electron integral symmetry is turned on.
 Leave Link  301 at Tue Sep 26 09:43:40 2023, MaxMem= 10737418240 cpu:               7.4 elap:               0.6
 (Enter /trinity/shared/apps/ccipl/gaussian/g16-A03-has-16.9-p/g16/l302.exe)
 NPDir=0 NMtPBC=     1 NCelOv=     1 NCel=       1 NClECP=     1 NCelD=      1
         NCelK=      1 NCelE2=     1 NClLst=     1 CellRange=     0.0.
 One-electron integrals computed using PRISM.
 One-electron integral symmetry used in STVInt
   8 Symmetry operations used in ECPInt.
 ECPInt:  NShTT=    4465 NPrTT=   19564 LenC2=    3861 LenP2D=   11656.
 LDataN:  DoStor=T MaxTD1= 7 Len=  274
 NBasis=   290 RedAO= T EigKep=  4.54D-03  NBF=    62    22    27    34    15    53    43    34
 NBsUse=   290 1.00D-06 EigRej= -1.00D+00 NBFU=    62    22    27    34    15    53    43    34
 Precomputing XC quadrature grid using
 IXCGrd= 4 IRadAn=           5 IRanWt=          -1 IRanGd=           0 AccXCQ= 0.00D+00.
 Defaulting to unpruned grid for atomic number  53.
 Defaulting to unpruned grid for atomic number  53.
 Defaulting to unpruned grid for atomic number  53.
 Defaulting to unpruned grid for atomic number  53.
 Generated NRdTot=       0 NPtTot=           0 NUsed=           0 NTot=          32
 NSgBfM=   318   318   318   318   318 MxSgAt=     6 MxSgA2=     6.
 Leave Link  302 at Tue Sep 26 09:43:43 2023, MaxMem= 10737418240 cpu:              25.7 elap:               1.8
 (Enter /trinity/shared/apps/ccipl/gaussian/g16-A03-has-16.9-p/g16/l303.exe)
 DipDrv:  MaxL=1.
 Leave Link  303 at Tue Sep 26 09:43:44 2023, MaxMem= 10737418240 cpu:               4.5 elap:               0.8
 (Enter /trinity/shared/apps/ccipl/gaussian/g16-A03-has-16.9-p/g16/l401.exe)
 ExpMin= 3.88D-02 ExpMax= 3.78D+05 ExpMxC= 3.65D+03 IAcc=3 IRadAn=         5 AccDes= 0.00D+00
 Harris functional with IExCor= 1009 and IRadAn=       5 diagonalized for initial guess.
 HarFok:  IExCor= 1009 AccDes= 0.00D+00 IRadAn=         5 IDoV= 1 UseB2=F ITyADJ=14
 ICtDFT=  3500011 ScaDFX=  1.000000  1.000000  1.000000  1.000000
 Defaulting to unpruned grid for atomic number  53.
 FoFCou: FMM=F IPFlag=           0 FMFlag=      100000 FMFlg1=           0
         NFxFlg=           0 DoJE=T BraDBF=F KetDBF=T FulRan=T
         wScrn=  0.000000 ICntrl=       500 IOpCl=  0 I1Cent=   200000004 NGrid=           0
         NMat0=    1 NMatS0=      1 NMatT0=    0 NMatD0=    1 NMtDS0=    0 NMtDT0=    0
 Petite list used in FoFCou.
 Harris En= -4472.82955339865    
 JPrj=0 DoOrth=F DoCkMO=F.
 Initial guess orbital symmetries:
       Occupied  (B1U) (AG) (B1U) (AG) (B1U) (AG) (B3G) (B2U) (B3U)
                 (B2G) (AG) (B2U) (B1U) (AG) (AG) (B2U) (B3G) (B1U)
                 (B1G) (B3U) (AG) (B1U) (B3G) (B2U) (B3U) (B2G)
                 (B1U) (AG) (AG) (B1U) (B2U) (B3G) (B3U) (B2G)
                 (B1U) (B3G) (AG) (B2U) (B3U) (B1G) (AU) (B2G)
                 (AG) (B2U) (AG) (B1U) (B2U) (B3G) (B3U) (B2G)
                 (B1G) (AU) (B1U) (AG) (AG) (B2U) (B1U) (AG) (AG)
                 (B1U) (B3G) (AG) (B2U) (B1U) (B3U) (B1G) (B2G)
                 (B3U) (B2U) (B3G) (AG) (AU) (AG) (B3U) (B1U) (B3G)
                 (B2G) (B1G) (B2U) (B1U)
       Virtual   (AG) (B1U) (B3U) (B2G) (B1U) (B2U) (AG) (AG) (B3G)
                 (AG) (AU) (B3U) (B1U) (B3G) (B2U) (AG) (B1G) (B1U)
                 (B2G) (B3U) (B2U) (B1G) (B1U) (B3G) (AG) (B3U)
                 (AU) (B2G) (B2U) (AG) (B1G) (B1U) (B2U) (B1U)
                 (B2G) (AG) (B3G) (B2U) (AG) (B3U) (B1U) (B1G)
                 (AG) (AU) (B3U) (B1U) (B3G) (B2G) (B3G) (B2U)
                 (B1U) (AG) (B2U) (B1U) (AG) (AG) (B3G) (B3U) (AU)
                 (AG) (B2U) (B2G) (B1G) (AG) (B1U) (B1U) (B2U)
                 (B1G) (B3G) (B3U) (B2G) (B2U) (B3G) (AU) (B3U)
                 (AG) (B1U) (B3U) (B2G) (B1G) (B3G) (AG) (B1U)
                 (B2U) (B1G) (AU) (B2G) (B3U) (B1U) (AG) (B2U)
                 (B3U) (B1U) (B2G) (B2U) (B3G) (B1G) (AG) (B3G)
                 (B3U) (B1U) (AG) (AU) (B1G) (AG) (B2G) (B1U) (B2U)
                 (B3U) (AG) (B3G) (B1G) (B2U) (AG) (AU) (B1U) (B1U)
                 (B2U) (AG) (B3U) (B3G) (B2G) (B3G) (B2U) (AG)
                 (B1U) (B2G) (B3U) (B2U) (B3G) (B1U) (AG) (B1G)
                 (AU) (B1G) (B3U) (B3G) (B2G) (B2U) (B3U) (B3G)
                 (B1U) (B2U) (AG) (AG) (AU) (B1G) (B2G) (B3U) (B1U)
                 (B2G) (B3U) (B1U) (B2U) (B3G) (AG) (B2U) (AG)
                 (B1U) (B3G) (AG) (B1U) (AU) (B1G) (B3U) (B2G)
                 (AG) (B1U) (AG) (B2U) (B3G) (B1U) (AG) (B2U) (B1U)
                 (AG) (B3G) (AU) (B2G) (B3U) (B1G) (B2G) (B2U)
                 (B3U) (B3G) (B1U) (B2U) (AG) (AG) (B1U) (B3U)
                 (B2G) (B1G) (B2U) (B3U) (B3G) (B1U) (B2U) (B3G)
                 (AG) (B1U) (AG) (AG) (B2U) (B1U) (AG) (AG) (B2U)
                 (B1U) (AG)
 The electronic state of the initial guess is 1-AG.
 Leave Link  401 at Tue Sep 26 09:43:46 2023, MaxMem= 10737418240 cpu:              20.7 elap:               1.6
 (Enter /trinity/shared/apps/ccipl/gaussian/g16-A03-has-16.9-p/g16/l502.exe)
 Keep R1 ints in memory in symmetry-blocked form, NReq=1003237458.
 FoFCou: FMM=F IPFlag=           0 FMFlag=           0 FMFlg1=           0
         NFxFlg=           0 DoJE=F BraDBF=F KetDBF=F FulRan=T
         wScrn=  0.000000 ICntrl=       600 IOpCl=  0 I1Cent=           0 NGrid=           0
         NMat0=    1 NMatS0=  42195 NMatT0=    0 NMatD0=    1 NMtDS0=    0 NMtDT0=    0
 Petite list used in FoFCou.
 Closed shell SCF:
 Using DIIS extrapolation, IDIIS=  1040.
 NGot= 10737418240 LenX= 10624171709 LenY= 10624055668
 Requested convergence on RMS density matrix=1.00D-08 within 128 cycles.
 Requested convergence on MAX density matrix=1.00D-06.
 Requested convergence on             energy=1.00D-06.
 No special actions if energy rises.

 Cycle   1  Pass 1  IDiag  1:
 Defaulting to unpruned grid for atomic number  53.
 Defaulting to unpruned grid for atomic number  53.
 Defaulting to unpruned grid for atomic number  53.
 Defaulting to unpruned grid for atomic number  53.
 Defaulting to unpruned grid for atomic number  53.
 Defaulting to unpruned grid for atomic number  53.
 Defaulting to unpruned grid for atomic number  53.
 Defaulting to unpruned grid for atomic number  53.
 Defaulting to unpruned grid for atomic number  53.
 Defaulting to unpruned grid for atomic number  53.
 Defaulting to unpruned grid for atomic number  53.
 Defaulting to unpruned grid for atomic number  53.
 Defaulting to unpruned grid for atomic number  53.
 Defaulting to unpruned grid for atomic number  53.
 Defaulting to unpruned grid for atomic number  53.
 Defaulting to unpruned grid for atomic number  53.
 Defaulting to unpruned grid for atomic number  53.
 Defaulting to unpruned grid for atomic number  53.
 Defaulting to unpruned grid for atomic number  53.
 Defaulting to unpruned grid for atomic number  53.
 E= -4471.23426184150    
 DIIS: error= 1.07D-01 at cycle   1 NSaved=   1.
 NSaved= 1 IEnMin= 1 EnMin= -4471.23426184150     IErMin= 1 ErrMin= 1.07D-01
 ErrMax= 1.07D-01  0.00D+00 EMaxC= 1.00D-01 BMatC= 1.74D+00 BMatP= 1.74D+00
 IDIUse=3 WtCom= 0.00D+00 WtEn= 1.00D+00
 Coeff-Com:  0.100D+01
 Coeff-En:   0.100D+01
 Coeff:      0.100D+01
 Gap=     0.490 Goal=   None    Shift=    0.000
 GapD=    0.490 DampG=2.000 DampE=0.125 DampFc=0.2500 IDamp=-1.
 Damping current iteration by 2.50D-01
 RMSDP=4.08D-03 MaxDP=1.80D-01              OVMax= 3.24D-01

 Cycle   2  Pass 1  IDiag  1:
 E= -4471.47730094387     Delta-E=       -0.243039102361 Rises=F Damp=T
 DIIS: error= 4.29D-02 at cycle   2 NSaved=   2.
 NSaved= 2 IEnMin= 2 EnMin= -4471.47730094387     IErMin= 2 ErrMin= 4.29D-02
 ErrMax= 4.29D-02  0.00D+00 EMaxC= 1.00D-01 BMatC= 1.43D-01 BMatP= 1.74D+00
 IDIUse=3 WtCom= 5.71D-01 WtEn= 4.29D-01
 Coeff-Com: -0.241D+00 0.124D+01
 Coeff-En:   0.000D+00 0.100D+01
 Coeff:     -0.138D+00 0.114D+01
 Gap=     0.225 Goal=   None    Shift=    0.000
 RMSDP=1.85D-03 MaxDP=8.78D-02 DE=-2.43D-01 OVMax= 1.30D-01

 Cycle   3  Pass 1  IDiag  1:
 E= -4471.74807982508     Delta-E=       -0.270778881211 Rises=F Damp=F
 DIIS: error= 2.66D-02 at cycle   3 NSaved=   3.
 NSaved= 3 IEnMin= 3 EnMin= -4471.74807982508     IErMin= 3 ErrMin= 2.66D-02
 ErrMax= 2.66D-02  0.00D+00 EMaxC= 1.00D-01 BMatC= 2.39D-01 BMatP= 1.43D-01
 IDIUse=2 WtCom= 0.00D+00 WtEn= 1.00D+00
 Coeff-En:   0.156D+00 0.000D+00 0.844D+00
 Coeff:      0.156D+00 0.000D+00 0.844D+00
 Gap=     0.185 Goal=   None    Shift=    0.000
 RMSDP=1.22D-03 MaxDP=4.74D-02 DE=-2.71D-01 OVMax= 9.03D-02

 Cycle   4  Pass 1  IDiag  1:
 E= -4471.72066862359     Delta-E=        0.027411201485 Rises=F Damp=F
 DIIS: error= 2.96D-02 at cycle   4 NSaved=   4.
 NSaved= 4 IEnMin= 3 EnMin= -4471.74807982508     IErMin= 3 ErrMin= 2.66D-02
 ErrMax= 2.96D-02  0.00D+00 EMaxC= 1.00D-01 BMatC= 3.52D-01 BMatP= 1.43D-01
 IDIUse=2 WtCom= 0.00D+00 WtEn= 1.00D+00
 Coeff-En:   0.000D+00 0.000D+00 0.551D+00 0.449D+00
 Coeff:      0.000D+00 0.000D+00 0.551D+00 0.449D+00
 Gap=     0.204 Goal=   None    Shift=    0.000
 RMSDP=6.68D-04 MaxDP=2.76D-02 DE= 2.74D-02 OVMax= 5.27D-02

 Cycle   5  Pass 1  IDiag  1:
 E= -4471.82678054446     Delta-E=       -0.106111920864 Rises=F Damp=F
 DIIS: error= 2.81D-03 at cycle   5 NSaved=   5.
 NSaved= 5 IEnMin= 5 EnMin= -4471.82678054446     IErMin= 5 ErrMin= 2.81D-03
 ErrMax= 2.81D-03  0.00D+00 EMaxC= 1.00D-01 BMatC= 4.14D-03 BMatP= 1.43D-01
 IDIUse=3 WtCom= 9.72D-01 WtEn= 2.81D-02
 Coeff-Com:  0.595D-01-0.785D-01 0.304D+00 0.169D+00 0.545D+00
 Coeff-En:   0.000D+00 0.000D+00 0.000D+00 0.000D+00 0.100D+01
 Coeff:      0.578D-01-0.763D-01 0.296D+00 0.165D+00 0.558D+00
 Gap=     0.191 Goal=   None    Shift=    0.000
 RMSDP=2.33D-04 MaxDP=1.30D-02 DE=-1.06D-01 OVMax= 1.59D-02

 Cycle   6  Pass 1  IDiag  1:
 E= -4471.82905880453     Delta-E=       -0.002278260077 Rises=F Damp=F
 DIIS: error= 1.88D-03 at cycle   6 NSaved=   6.
 NSaved= 6 IEnMin= 6 EnMin= -4471.82905880453     IErMin= 6 ErrMin= 1.88D-03
 ErrMax= 1.88D-03  0.00D+00 EMaxC= 1.00D-01 BMatC= 1.46D-03 BMatP= 4.14D-03
 IDIUse=3 WtCom= 9.81D-01 WtEn= 1.88D-02
 Coeff-Com: -0.242D-01 0.265D-01 0.512D-01 0.574D-01 0.253D+00 0.636D+00
 Coeff-En:   0.000D+00 0.000D+00 0.000D+00 0.000D+00 0.207D+00 0.793D+00
 Coeff:     -0.238D-01 0.260D-01 0.503D-01 0.563D-01 0.252D+00 0.639D+00
 Gap=     0.194 Goal=   None    Shift=    0.000
 RMSDP=8.31D-05 MaxDP=4.00D-03 DE=-2.28D-03 OVMax= 4.73D-03

 Cycle   7  Pass 1  IDiag  1:
 E= -4471.82971096610     Delta-E=       -0.000652161567 Rises=F Damp=F
 DIIS: error= 4.48D-04 at cycle   7 NSaved=   7.
 NSaved= 7 IEnMin= 7 EnMin= -4471.82971096610     IErMin= 7 ErrMin= 4.48D-04
 ErrMax= 4.48D-04  0.00D+00 EMaxC= 1.00D-01 BMatC= 7.03D-05 BMatP= 1.46D-03
 IDIUse=3 WtCom= 9.96D-01 WtEn= 4.48D-03
 Coeff-Com: -0.844D-02 0.100D-01 0.319D-02 0.163D-01 0.382D-01 0.211D+00
 Coeff-Com:  0.729D+00
 Coeff-En:   0.000D+00 0.000D+00 0.000D+00 0.000D+00 0.000D+00 0.313D-01
 Coeff-En:   0.969D+00
 Coeff:     -0.841D-02 0.996D-02 0.318D-02 0.162D-01 0.380D-01 0.211D+00
 Coeff:      0.730D+00
 Gap=     0.193 Goal=   None    Shift=    0.000
 RMSDP=1.49D-05 MaxDP=7.97D-04 DE=-6.52D-04 OVMax= 6.23D-04

 Cycle   8  Pass 1  IDiag  1:
 E= -4471.82973747443     Delta-E=       -0.000026508325 Rises=F Damp=F
 DIIS: error= 1.26D-04 at cycle   8 NSaved=   8.
 NSaved= 8 IEnMin= 8 EnMin= -4471.82973747443     IErMin= 8 ErrMin= 1.26D-04
 ErrMax= 1.26D-04  0.00D+00 EMaxC= 1.00D-01 BMatC= 5.79D-06 BMatP= 7.03D-05
 IDIUse=3 WtCom= 9.99D-01 WtEn= 1.26D-03
 Coeff-Com: -0.298D-02 0.409D-02-0.592D-02 0.507D-02-0.224D-01 0.822D-02
 Coeff-Com:  0.254D+00 0.760D+00
 Coeff-En:   0.000D+00 0.000D+00 0.000D+00 0.000D+00 0.000D+00 0.000D+00
 Coeff-En:   0.000D+00 0.100D+01
 Coeff:     -0.298D-02 0.409D-02-0.591D-02 0.507D-02-0.224D-01 0.821D-02
 Coeff:      0.253D+00 0.760D+00
 Gap=     0.193 Goal=   None    Shift=    0.000
 RMSDP=3.55D-06 MaxDP=2.06D-04 DE=-2.65D-05 OVMax= 2.00D-04

 Cycle   9  Pass 1  IDiag  1:
 E= -4471.82973938905     Delta-E=       -0.000001914621 Rises=F Damp=F
 DIIS: error= 4.63D-05 at cycle   9 NSaved=   9.
 NSaved= 9 IEnMin= 9 EnMin= -4471.82973938905     IErMin= 9 ErrMin= 4.63D-05
 ErrMax= 4.63D-05  0.00D+00 EMaxC= 1.00D-01 BMatC= 7.93D-07 BMatP= 5.79D-06
 IDIUse=1 WtCom= 1.00D+00 WtEn= 0.00D+00
 Coeff-Com: -0.606D-03 0.836D-03-0.207D-02 0.132D-02-0.903D-02-0.670D-02
 Coeff-Com:  0.786D-02 0.166D+00 0.842D+00
 Coeff:     -0.606D-03 0.836D-03-0.207D-02 0.132D-02-0.903D-02-0.670D-02
 Coeff:      0.786D-02 0.166D+00 0.842D+00
 Gap=     0.193 Goal=   None    Shift=    0.000
 RMSDP=1.17D-06 MaxDP=6.95D-05 DE=-1.91D-06 OVMax= 6.95D-05

 Cycle  10  Pass 1  IDiag  1:
 E= -4471.82973965100     Delta-E=       -0.000000261949 Rises=F Damp=F
 DIIS: error= 1.15D-05 at cycle  10 NSaved=  10.
 NSaved=10 IEnMin=10 EnMin= -4471.82973965100     IErMin=10 ErrMin= 1.15D-05
 ErrMax= 1.15D-05  0.00D+00 EMaxC= 1.00D-01 BMatC= 4.39D-08 BMatP= 7.93D-07
 IDIUse=1 WtCom= 1.00D+00 WtEn= 0.00D+00
 Coeff-Com:  0.450D-04-0.591D-04-0.263D-03-0.187D-05-0.123D-02-0.213D-02
 Coeff-Com: -0.304D-01-0.368D-01 0.362D+00 0.709D+00
 Coeff:      0.450D-04-0.591D-04-0.263D-03-0.187D-05-0.123D-02-0.213D-02
 Coeff:     -0.304D-01-0.368D-01 0.362D+00 0.709D+00
 Gap=     0.193 Goal=   None    Shift=    0.000
 RMSDP=4.60D-07 MaxDP=2.44D-05 DE=-2.62D-07 OVMax= 2.59D-05

 Cycle  11  Pass 1  IDiag  1:
 E= -4471.82973966924     Delta-E=       -0.000000018248 Rises=F Damp=F
 DIIS: error= 5.44D-07 at cycle  11 NSaved=  11.
 NSaved=11 IEnMin=11 EnMin= -4471.82973966924     IErMin=11 ErrMin= 5.44D-07
 ErrMax= 5.44D-07  0.00D+00 EMaxC= 1.00D-01 BMatC= 1.08D-10 BMatP= 4.39D-08
 IDIUse=1 WtCom= 1.00D+00 WtEn= 0.00D+00
 Coeff-Com:  0.786D-05-0.827D-05 0.202D-04-0.679D-05-0.440D-04-0.251D-03
 Coeff-Com: -0.867D-02-0.181D-01 0.648D-01 0.206D+00 0.756D+00
 Coeff:      0.786D-05-0.827D-05 0.202D-04-0.679D-05-0.440D-04-0.251D-03
 Coeff:     -0.867D-02-0.181D-01 0.648D-01 0.206D+00 0.756D+00
 Gap=     0.193 Goal=   None    Shift=    0.000
 RMSDP=6.73D-08 MaxDP=3.75D-06 DE=-1.82D-08 OVMax= 4.11D-06

 Cycle  12  Pass 1  IDiag  1:
 E= -4471.82973966939     Delta-E=       -0.000000000144 Rises=F Damp=F
 DIIS: error= 1.43D-07 at cycle  12 NSaved=  12.
 NSaved=12 IEnMin=12 EnMin= -4471.82973966939     IErMin=12 ErrMin= 1.43D-07
 ErrMax= 1.43D-07  0.00D+00 EMaxC= 1.00D-01 BMatC= 7.26D-12 BMatP= 1.08D-10
 IDIUse=1 WtCom= 1.00D+00 WtEn= 0.00D+00
 Coeff-Com:  0.240D-06-0.203D-06 0.346D-04 0.234D-06 0.107D-03 0.297D-04
 Coeff-Com: -0.701D-03-0.324D-02-0.764D-02 0.976D-02 0.216D+00 0.785D+00
 Coeff:      0.240D-06-0.203D-06 0.346D-04 0.234D-06 0.107D-03 0.297D-04
 Coeff:     -0.701D-03-0.324D-02-0.764D-02 0.976D-02 0.216D+00 0.785D+00
 Gap=     0.193 Goal=   None    Shift=    0.000
 RMSDP=2.00D-08 MaxDP=1.18D-06 DE=-1.44D-10 OVMax= 1.08D-06

 Cycle  13  Pass 1  IDiag  1:
 E= -4471.82973966937     Delta-E=        0.000000000015 Rises=F Damp=F
 DIIS: error= 6.01D-08 at cycle  13 NSaved=  13.
 NSaved=13 IEnMin=12 EnMin= -4471.82973966939     IErMin=13 ErrMin= 6.01D-08
 ErrMax= 6.01D-08  0.00D+00 EMaxC= 1.00D-01 BMatC= 2.31D-12 BMatP= 7.26D-12
 IDIUse=1 WtCom= 1.00D+00 WtEn= 0.00D+00
 Coeff-Com:  0.165D-06-0.234D-06 0.968D-05-0.250D-05 0.515D-04 0.374D-04
 Coeff-Com:  0.519D-03 0.454D-03-0.841D-02-0.150D-01 0.539D-02 0.287D+00
 Coeff-Com:  0.730D+00
 Coeff:      0.165D-06-0.234D-06 0.968D-05-0.250D-05 0.515D-04 0.374D-04
 Coeff:      0.519D-03 0.454D-03-0.841D-02-0.150D-01 0.539D-02 0.287D+00
 Coeff:      0.730D+00
 Gap=     0.193 Goal=   None    Shift=    0.000
 RMSDP=5.79D-09 MaxDP=3.11D-07 DE= 1.46D-11 OVMax= 3.40D-07

 SCF Done:  E(RPBE1PBE) =  -4471.82973967     A.U. after   13 cycles
            NFock= 13  Conv=0.58D-08     -V/T= 2.1986
 KE= 3.730826213601D+03 PE=-1.350491730701D+04 EE= 3.760528067372D+03
 Leave Link  502 at Tue Sep 26 09:43:54 2023, MaxMem= 10737418240 cpu:             129.3 elap:               7.4
 (Enter /trinity/shared/apps/ccipl/gaussian/g16-A03-has-16.9-p/g16/l801.exe)
 DoSCS=F DFT=T ScalE2(SS,OS)=  1.000000  1.000000
 Range of M.O.s used for correlation:     1   290
 NBasis=   290 NAE=    80 NBE=    80 NFC=     0 NFV=     0
 NROrb=    290 NOA=    80 NOB=    80 NVA=   210 NVB=   210
 Leave Link  801 at Tue Sep 26 09:43:54 2023, MaxMem= 10737418240 cpu:               1.6 elap:               0.4
 (Enter /trinity/shared/apps/ccipl/gaussian/g16-A03-has-16.9-p/g16/l1002.exe)
 Minotr:  Closed shell wavefunction.
          Direct CPHF calculation.
          Differentiating once with respect to electric field.
                with respect to dipole field.
          Electric field/nuclear overlap derivatives assumed to be zero.
          Using symmetry in CPHF.
          Requested convergence is 1.0D-08 RMS, and 1.0D-07 maximum.
          Secondary convergence is 1.0D-12 RMS, and 1.0D-12 maximum.
          NewPWx=F KeepS1=T KeepF1=T KeepIn=T MapXYZ=F SortEE=F KeepMc=T.
 Defaulting to unpruned grid for atomic number  53.
 Defaulting to unpruned grid for atomic number  53.
 Defaulting to unpruned grid for atomic number  53.
 Defaulting to unpruned grid for atomic number  53.
         2573 words used for storage of precomputed grid.
 Keep R1 ints in memory in symmetry-blocked form, NReq=1003241465.
 FoFCou: FMM=F IPFlag=           0 FMFlag=           0 FMFlg1=           0
         NFxFlg=           0 DoJE=F BraDBF=F KetDBF=F FulRan=T
         wScrn=  0.000000 ICntrl=       600 IOpCl=  0 I1Cent=           0 NGrid=           0
         NMat0=    1 NMatS0=  42195 NMatT0=    0 NMatD0=    1 NMtDS0=    0 NMtDT0=    0
 Petite list used in FoFCou.
 Two-electron integral symmetry used by symmetrizing perturbed Fock matrices.
          MDV=   10737418240 using IRadAn=       4.
          Solving linear equations simultaneously, MaxMat=       0.
          There are     3 degrees of freedom in the 1st order CPHF.  IDoFFX=0 NUNeed=     3.
      3 vectors produced by pass  0 Test12= 5.60D-13 3.33D-08 XBig12= 2.61D+02 6.74D+00.
 AX will form     3 AO Fock derivatives at one time.
 Defaulting to unpruned grid for atomic number  53.
 Defaulting to unpruned grid for atomic number  53.
 Defaulting to unpruned grid for atomic number  53.
 Defaulting to unpruned grid for atomic number  53.
 Defaulting to unpruned grid for atomic number  53.
 Defaulting to unpruned grid for atomic number  53.
 Defaulting to unpruned grid for atomic number  53.
 Defaulting to unpruned grid for atomic number  53.
 Defaulting to unpruned grid for atomic number  53.
 Defaulting to unpruned grid for atomic number  53.
 Defaulting to unpruned grid for atomic number  53.
 Defaulting to unpruned grid for atomic number  53.
 Defaulting to unpruned grid for atomic number  53.
 Defaulting to unpruned grid for atomic number  53.
 Defaulting to unpruned grid for atomic number  53.
 Defaulting to unpruned grid for atomic number  53.
 Defaulting to unpruned grid for atomic number  53.
 Defaulting to unpruned grid for atomic number  53.
 Defaulting to unpruned grid for atomic number  53.
 Defaulting to unpruned grid for atomic number  53.
      3 vectors produced by pass  1 Test12= 5.60D-13 3.33D-08 XBig12= 3.57D+01 2.23D+00.
      3 vectors produced by pass  2 Test12= 5.60D-13 3.33D-08 XBig12= 4.05D+00 5.71D-01.
      3 vectors produced by pass  3 Test12= 5.60D-13 3.33D-08 XBig12= 5.48D+00 4.16D-01.
      3 vectors produced by pass  4 Test12= 5.60D-13 3.33D-08 XBig12= 1.56D+00 4.05D-01.
      3 vectors produced by pass  5 Test12= 5.60D-13 3.33D-08 XBig12= 5.73D-01 1.88D-01.
      3 vectors produced by pass  6 Test12= 5.60D-13 3.33D-08 XBig12= 4.34D-02 6.52D-02.
      3 vectors produced by pass  7 Test12= 5.60D-13 3.33D-08 XBig12= 6.05D-03 2.07D-02.
      3 vectors produced by pass  8 Test12= 5.60D-13 3.33D-08 XBig12= 3.71D-04 4.19D-03.
      3 vectors produced by pass  9 Test12= 5.60D-13 3.33D-08 XBig12= 4.27D-05 1.83D-03.
      3 vectors produced by pass 10 Test12= 5.60D-13 3.33D-08 XBig12= 1.66D-06 2.58D-04.
      3 vectors produced by pass 11 Test12= 5.60D-13 3.33D-08 XBig12= 3.87D-08 4.81D-05.
      2 vectors produced by pass 12 Test12= 5.60D-13 3.33D-08 XBig12= 1.23D-09 1.19D-05.
      2 vectors produced by pass 13 Test12= 5.60D-13 3.33D-08 XBig12= 2.60D-11 1.17D-06.
      1 vectors produced by pass 14 Test12= 5.60D-13 3.33D-08 XBig12= 1.13D-12 2.13D-07.
      1 vectors produced by pass 15 Test12= 5.60D-13 3.33D-08 XBig12= 3.39D-14 4.67D-08.
 InvSVY:  IOpt=1 It=  1 EMax= 3.55D-15
 Solved reduced A of dimension    42 with     3 vectors.
 End of Minotr F.D. properties file   721 does not exist.
 End of Minotr F.D. properties file   722 does not exist.
 End of Minotr F.D. properties file   788 does not exist.
 Leave Link 1002 at Tue Sep 26 09:44:04 2023, MaxMem= 10737418240 cpu:             176.5 elap:               9.5
 (Enter /trinity/shared/apps/ccipl/gaussian/g16-A03-has-16.9-p/g16/l1101.exe)
 Using compressed storage, NAtomX=     6.
 Will process      7 centers per pass.
   8 Symmetry operations used in ECPInt.
 ECPInt:  NShTT=    4465 NPrTT=   19564 LenC2=    3861 LenP2D=   11656.
 LDataN:  DoStor=T MaxTD1= 8 Len=  415
 Leave Link 1101 at Tue Sep 26 09:44:07 2023, MaxMem= 10737418240 cpu:              34.6 elap:               2.4
 (Enter /trinity/shared/apps/ccipl/gaussian/g16-A03-has-16.9-p/g16/l1102.exe)
 Symmetrizing basis deriv contribution to polar:
 IMax=3 JMax=2 DiffMx= 0.00D+00
 Leave Link 1102 at Tue Sep 26 09:44:08 2023, MaxMem= 10737418240 cpu:               3.6 elap:               0.8
 (Enter /trinity/shared/apps/ccipl/gaussian/g16-A03-has-16.9-p/g16/l1110.exe)
 Forming Gx(P) for the SCF density, NAtomX=     6.
 Integral derivatives from FoFJK, PRISM(SPDF).
 Do as many integral derivatives as possible in FoFJK.
 G2DrvN: MDV=   10737417684.
 G2DrvN: will do     7 centers at a time, making    1 passes.
 PxScal for G2LodP:  IOpCl= 0 ISclPx=1 IMOff=     1 NMtTot=     4 NTT=   42195 ScalPx= 4.26D+00
 Calling FoFCou, ICntrl=  3107 FMM=F I1Cent=   0 AccDes= 0.00D+00.
 FoFJK:  IHMeth= 1 ICntrl=    3107 DoSepK=F KAlg= 0 I1Cent=           0 FoldK=F
 IRaf=         0 NMat=       1 IRICut=       1 DoRegI=T DoRafI=F ISym2E= 1 IDoP0=0 IntGTp=1.
 FoFCou: FMM=F IPFlag=           0 FMFlag=      100000 FMFlg1=           0
         NFxFlg=           0 DoJE=F BraDBF=F KetDBF=F FulRan=T
         wScrn=  0.000000 ICntrl=      3107 IOpCl=  0 I1Cent=           0 NGrid=           0
         NMat0=    1 NMatS0=      1 NMatT0=    0 NMatD0=    4 NMtDS0=    3 NMtDT0=    0
 Petite list used in FoFCou.
 Defaulting to unpruned grid for atomic number  53.
 Defaulting to unpruned grid for atomic number  53.
 Defaulting to unpruned grid for atomic number  53.
 Defaulting to unpruned grid for atomic number  53.
 Defaulting to unpruned grid for atomic number  53.
 Defaulting to unpruned grid for atomic number  53.
 Defaulting to unpruned grid for atomic number  53.
 Defaulting to unpruned grid for atomic number  53.
 Defaulting to unpruned grid for atomic number  53.
 Defaulting to unpruned grid for atomic number  53.
 Defaulting to unpruned grid for atomic number  53.
 Defaulting to unpruned grid for atomic number  53.
 Defaulting to unpruned grid for atomic number  53.
 Defaulting to unpruned grid for atomic number  53.
 Defaulting to unpruned grid for atomic number  53.
 Defaulting to unpruned grid for atomic number  53.
 Defaulting to unpruned grid for atomic number  53.
 Defaulting to unpruned grid for atomic number  53.
 Defaulting to unpruned grid for atomic number  53.
 Defaulting to unpruned grid for atomic number  53.
 End of G2Drv F.D. properties file   721 does not exist.
 End of G2Drv F.D. properties file   722 does not exist.
 End of G2Drv F.D. properties file   788 does not exist.
 Leave Link 1110 at Tue Sep 26 09:44:15 2023, MaxMem= 10737418240 cpu:             121.1 elap:               6.5
 (Enter /trinity/shared/apps/ccipl/gaussian/g16-A03-has-16.9-p/g16/l1002.exe)
 Minotr:  Closed shell wavefunction.
          IDoAtm=111111
          Direct CPHF calculation.
          Differentiating once with respect to electric field.
                with respect to dipole field.
          Differentiating once with respect to nuclear coordinates.
          Using symmetry in CPHF.
          Requested convergence is 1.0D-08 RMS, and 1.0D-07 maximum.
          Secondary convergence is 1.0D-12 RMS, and 1.0D-12 maximum.
          NewPWx=T KeepS1=F KeepF1=F KeepIn=T MapXYZ=F SortEE=F KeepMc=T.
 Defaulting to unpruned grid for atomic number  53.
 Defaulting to unpruned grid for atomic number  53.
 Defaulting to unpruned grid for atomic number  53.
 Defaulting to unpruned grid for atomic number  53.
         2573 words used for storage of precomputed grid.
 Keep R1 ints in memory in symmetry-blocked form, NReq=1003241603.
 FoFCou: FMM=F IPFlag=           0 FMFlag=           0 FMFlg1=           0
         NFxFlg=           0 DoJE=F BraDBF=F KetDBF=F FulRan=T
         wScrn=  0.000000 ICntrl=       600 IOpCl=  0 I1Cent=           0 NGrid=           0
         NMat0=    1 NMatS0=  42195 NMatT0=    0 NMatD0=    1 NMtDS0=    0 NMtDT0=    0
 Petite list used in FoFCou.
          MDV=   10737418240 using IRadAn=       4.
          Solving linear equations simultaneously, MaxMat=       0.
 Defaulting to unpruned grid for atomic number  53.
 Defaulting to unpruned grid for atomic number  53.
 Defaulting to unpruned grid for atomic number  53.
 Defaulting to unpruned grid for atomic number  53.
 Defaulting to unpruned grid for atomic number  53.
 Defaulting to unpruned grid for atomic number  53.
 Defaulting to unpruned grid for atomic number  53.
 Defaulting to unpruned grid for atomic number  53.
 Defaulting to unpruned grid for atomic number  53.
 Defaulting to unpruned grid for atomic number  53.
 Defaulting to unpruned grid for atomic number  53.
 Defaulting to unpruned grid for atomic number  53.
 Defaulting to unpruned grid for atomic number  53.
 Defaulting to unpruned grid for atomic number  53.
 Defaulting to unpruned grid for atomic number  53.
 Defaulting to unpruned grid for atomic number  53.
 Defaulting to unpruned grid for atomic number  53.
 Defaulting to unpruned grid for atomic number  53.
 Defaulting to unpruned grid for atomic number  53.
 Defaulting to unpruned grid for atomic number  53.
          There are    12 degrees of freedom in the 1st order CPHF.  IDoFFX=4 NUNeed=    12.
 Will reuse    3 saved solutions.
      9 vectors produced by pass  0 Test12= 1.40D-13 8.33D-09 XBig12= 1.18D-02 2.98D-02.
 AX will form     9 AO Fock derivatives at one time.
      9 vectors produced by pass  1 Test12= 1.40D-13 8.33D-09 XBig12= 5.23D-03 1.30D-02.
      9 vectors produced by pass  2 Test12= 1.40D-13 8.33D-09 XBig12= 2.36D-03 1.28D-02.
      9 vectors produced by pass  3 Test12= 1.40D-13 8.33D-09 XBig12= 3.77D-04 4.73D-03.
      9 vectors produced by pass  4 Test12= 1.40D-13 8.33D-09 XBig12= 2.71D-05 9.91D-04.
      9 vectors produced by pass  5 Test12= 1.40D-13 8.33D-09 XBig12= 2.03D-06 2.73D-04.
      9 vectors produced by pass  6 Test12= 1.40D-13 8.33D-09 XBig12= 1.48D-07 7.03D-05.
      9 vectors produced by pass  7 Test12= 1.40D-13 8.33D-09 XBig12= 9.57D-09 1.80D-05.
      7 vectors produced by pass  8 Test12= 1.40D-13 8.33D-09 XBig12= 5.14D-10 4.55D-06.
      6 vectors produced by pass  9 Test12= 1.40D-13 8.33D-09 XBig12= 2.62D-11 1.31D-06.
      2 vectors produced by pass 10 Test12= 1.40D-13 8.33D-09 XBig12= 4.11D-13 1.08D-07.
      1 vectors produced by pass 11 Test12= 1.40D-13 8.33D-09 XBig12= 1.07D-14 2.12D-08.
 InvSVY:  IOpt=1 It=  1 EMax= 6.66D-16
 Solved reduced A of dimension    88 with     9 vectors.
 FullF1:  Do perturbations      1 to      12.
 Isotropic polarizability for W=    0.000000      198.37 Bohr**3.
 FullF1:  Do perturbations      1 to       6.
 End of Minotr F.D. properties file   721 does not exist.
 End of Minotr F.D. properties file   722 does not exist.
 End of Minotr F.D. properties file   788 does not exist.
 Leave Link 1002 at Tue Sep 26 09:44:36 2023, MaxMem= 10737418240 cpu:             417.9 elap:              21.2
 (Enter /trinity/shared/apps/ccipl/gaussian/g16-A03-has-16.9-p/g16/l601.exe)
 Copying SCF densities to generalized density rwf, IOpCl= 0 IROHF=0.

 **********************************************************************

            Population analysis using the SCF density.

 **********************************************************************

 Orbital symmetries:
       Occupied  (B1U) (AG) (B1U) (AG) (B3U) (B2G) (B1U) (AG) (B3G)
                 (B2U) (AG) (B2U) (B1U) (AG) (B2U) (AG) (B3G) (B1U)
                 (B1G) (B3U) (B1U) (AG) (B2G) (B3U) (B3G) (B2U)
                 (B1U) (AG) (B3U) (B2G) (AG) (B1U) (B2U) (B3G)
                 (B1U) (B3G) (AG) (B2U) (B1G) (B3U) (AU) (B2G)
                 (AG) (B2U) (B1U) (AG) (B2G) (B3U) (B3G) (B2U)
                 (B1G) (AU) (B1U) (AG) (AG) (B2U) (B1U) (AG) (AG)
                 (B1U) (B2U) (B1U) (B3G) (B3U) (AG) (B1G) (B2G)
                 (B3G) (AU) (B3U) (AG) (B1U) (B2U) (AG) (B2G) (B1G)
                 (B3U) (B3G) (B1U) (B2U)
       Virtual   (AG) (B1U) (B1U) (B3U) (B2G) (AG) (B2U) (AG) (B3G)
                 (B2U) (AG) (B1U) (B3U) (AU) (AG) (B3G) (B2G) (B3U)
                 (B2U) (B1G) (B1U) (B3G) (B1G) (B1U) (B3U) (AG)
                 (B2G) (B2U) (AU) (AG) (B1G) (B1U) (B2U) (B1U)
                 (B2G) (B3G) (AG) (AG) (B2U) (B3U) (B1G) (B1U)
                 (AG) (AU) (B3U) (B1U) (B2G) (B3G) (B3G) (B2U)
                 (AG) (B1U) (B2U) (B1U) (AG) (AG) (B3G) (B3U) (AU)
                 (AG) (B2G) (B1G) (B2U) (AG) (B1U) (B1U) (B1G)
                 (B2U) (B3G) (B3U) (B3G) (B2G) (B2U) (B3U) (AU)
                 (AG) (B1U) (B3U) (B1G) (B2G) (B3G) (B1U) (AG)
                 (B2U) (B1G) (AU) (B3U) (B2G) (B1U) (AG) (B2U)
                 (B3U) (B2G) (B1U) (B2U) (B1G) (B3G) (AG) (B3G)
                 (B3U) (B1U) (AG) (AU) (B1G) (AG) (B2G) (B1U) (B2U)
                 (B3U) (AG) (B3G) (B1G) (B2U) (AU) (AG) (B1U) (B1U)
                 (B3U) (AG) (B2U) (B3G) (B2G) (B3G) (B2U) (AG)
                 (B1U) (B2G) (B3U) (B2U) (B3G) (B1U) (AG) (B1G)
                 (B3U) (B1G) (B3G) (AU) (B1U) (AG) (B2U) (B2G)
                 (B3U) (B2U) (B3G) (AG) (AU) (B1G) (B2G) (B3U)
                 (B1U) (B1U) (B2G) (B3U) (B2U) (B3G) (AG) (B2U)
                 (AG) (B3G) (B1U) (AG) (B1U) (AU) (B1G) (B3U) (B2G)
                 (AG) (B1U) (AG) (B2U) (B3G) (B1U) (AG) (B2U) (B1U)
                 (AG) (B2G) (AU) (B3U) (B2G) (B3U) (B3G) (B1G)
                 (B2U) (B3G) (B1U) (AG) (B2U) (B1U) (AG) (B3U)
                 (B1G) (B2G) (B2U) (B3U) (B3G) (B1U) (B2U) (B3G)
                 (AG) (B1U) (AG) (AG) (B2U) (B1U) (AG) (AG) (B2U)
                 (B1U) (AG)
 The electronic state is 1-AG.
 Alpha  occ. eigenvalues -- -323.06012-323.06012 -38.65596 -38.65595 -33.82448
 Alpha  occ. eigenvalues --  -33.82448 -33.82233 -33.82233 -33.82200 -33.82200
 Alpha  occ. eigenvalues --   -6.62693  -6.62693  -6.61147  -6.61146  -4.63494
 Alpha  occ. eigenvalues --   -4.63494  -4.63428  -4.63428  -4.63277  -4.63277
 Alpha  occ. eigenvalues --   -4.62030  -4.62030  -4.61783  -4.61783  -4.61746
 Alpha  occ. eigenvalues --   -4.61746  -4.08025  -4.08024  -2.56015  -2.56015
 Alpha  occ. eigenvalues --   -2.55941  -2.55936  -2.55766  -2.55766  -1.66266
 Alpha  occ. eigenvalues --   -1.66266  -1.66248  -1.66247  -1.66104  -1.66104
 Alpha  occ. eigenvalues --   -1.66043  -1.66043  -1.66022  -1.66022  -1.64768
 Alpha  occ. eigenvalues --   -1.64768  -1.64676  -1.64676  -1.64643  -1.64643
 Alpha  occ. eigenvalues --   -1.64423  -1.64423  -1.64422  -1.64422  -0.43857
 Alpha  occ. eigenvalues --   -0.43135  -0.41746  -0.41706  -0.09986  -0.08101
 Alpha  occ. eigenvalues --   -0.07100  -0.06219  -0.05942  -0.05363  -0.05292
 Alpha  occ. eigenvalues --   -0.04832  -0.04003  -0.03165  -0.02961  -0.02802
 Alpha  occ. eigenvalues --   -0.02658  -0.02132  -0.01812  -0.01266  -0.00277
 Alpha  occ. eigenvalues --   -0.00059   0.00274   0.01154   0.02210   0.02679
 Alpha virt. eigenvalues --    0.22005   0.24289   0.27641   0.30537   0.31695
 Alpha virt. eigenvalues --    0.32235   0.33337   0.33803   0.36461   0.36557
 Alpha virt. eigenvalues --    0.37073   0.37936   0.38268   0.38577   0.38601
 Alpha virt. eigenvalues --    0.38806   0.40252   0.40834   0.41112   0.41514
 Alpha virt. eigenvalues --    0.41996   0.42397   0.42641   0.44727   0.45379
 Alpha virt. eigenvalues --    0.45681   0.48324   0.48949   0.48992   0.49162
 Alpha virt. eigenvalues --    0.50577   0.52309   0.54380   0.54461   0.57442
 Alpha virt. eigenvalues --    0.57923   0.58627   0.60017   0.60181   0.62602
 Alpha virt. eigenvalues --    0.62904   0.64546   0.64601   0.65922   0.67388
 Alpha virt. eigenvalues --    0.68085   0.74012   0.74613   0.76992   0.78278
 Alpha virt. eigenvalues --    0.81526   0.81569   0.85754   0.89665   0.89788
 Alpha virt. eigenvalues --    0.94067   1.02778   1.02935   1.03177   1.04167
 Alpha virt. eigenvalues --    1.05934   1.06569   1.06639   1.09059   1.11140
 Alpha virt. eigenvalues --    1.12001   1.14632   1.14681   1.15483   1.15807
 Alpha virt. eigenvalues --    1.15866   1.15867   1.15867   1.15903   1.16221
 Alpha virt. eigenvalues --    1.16784   1.16945   1.17416   1.17452   1.17628
 Alpha virt. eigenvalues --    1.20518   1.21662   1.21722   1.22891   1.26865
 Alpha virt. eigenvalues --    1.30456   1.32751   1.32876   1.34802   1.35249
 Alpha virt. eigenvalues --    1.36124   1.39458   1.43181   1.43322   1.44439
 Alpha virt. eigenvalues --    1.44539   1.44756   1.46094   1.46613   1.47019
 Alpha virt. eigenvalues --    1.59575   1.64609   1.65341   1.66087   1.66283
 Alpha virt. eigenvalues --    1.66626   1.68316   1.68865   1.69681   1.72773
 Alpha virt. eigenvalues --    1.73294   1.73947   1.74179   1.76303   1.77076
 Alpha virt. eigenvalues --    1.77500   1.78496   1.78644   1.79013   1.79209
 Alpha virt. eigenvalues --    1.79775   1.80654   1.84876   1.92450   1.94417
 Alpha virt. eigenvalues --    1.96156   2.46668   2.48652   2.72067   2.74665
 Alpha virt. eigenvalues --    2.84477   2.85460   3.33183   3.33628   3.33833
 Alpha virt. eigenvalues --    3.33904   3.33977   3.34128   3.34178   3.34204
 Alpha virt. eigenvalues --    3.34602   3.34602   3.34602   3.34605   3.35155
 Alpha virt. eigenvalues --    3.35637   3.35701   3.35730   3.35879   3.36129
 Alpha virt. eigenvalues --    3.36655   3.37142   3.37148   3.38489   3.38649
 Alpha virt. eigenvalues --    3.39177   3.42938   3.47432   3.50632   3.50736
 Alpha virt. eigenvalues --    3.63464   3.73897   4.00019   4.01198   4.03501
 Alpha virt. eigenvalues --    4.04638   4.07916   4.11076   4.17860   4.27841
 Alpha virt. eigenvalues --    4.28779   4.29878   4.45579   4.50158   4.56763
 Alpha virt. eigenvalues --    4.65379   6.07068   6.07108   6.07150   6.07168
 Alpha virt. eigenvalues --    6.07212   6.07247   6.07265   6.07324   6.08019
 Alpha virt. eigenvalues --    6.08558   6.08702   6.08874   6.09854   6.09867
 Alpha virt. eigenvalues --   34.76655  34.78616  34.78952  34.79687  34.79942
 Alpha virt. eigenvalues --   34.80453  34.88647  34.90576  34.90770  34.94937
 Alpha virt. eigenvalues --   34.95743  34.97763  42.93577  42.99061  43.04841
 Alpha virt. eigenvalues --   43.10726 118.42390 118.43000 118.45643 118.46297
          Condensed to atoms (all electrons):
               1          2          3          4          5          6
     1  I   25.446490  -0.022354   0.133115   0.133115  -0.080976  -0.022354
     2  I   -0.022354  25.572119   0.172528   0.002389  -0.022354  -0.000020
     3  Cu   0.133115   0.172528  28.288230  -0.018719   0.133115   0.002389
     4  Cu   0.133115   0.002389  -0.018719  28.288230   0.133115   0.172528
     5  I   -0.080976  -0.022354   0.133115   0.133115  25.446490  -0.022354
     6  I   -0.022354  -0.000020   0.002389   0.172528  -0.022354  25.572119
 Mulliken charges:
               1
     1  I   -0.587036
     2  I   -0.702307
     3  Cu   0.289343
     4  Cu   0.289343
     5  I   -0.587036
     6  I   -0.702307
 Sum of Mulliken charges =  -2.00000
 Mulliken charges with hydrogens summed into heavy atoms:
               1
     1  I   -0.587036
     2  I   -0.702307
     3  Cu   0.289343
     4  Cu   0.289343
     5  I   -0.587036
     6  I   -0.702307
 APT charges:
               1
     1  I   -0.776295
     2  I   -0.833073
     3  Cu   0.609368
     4  Cu   0.609368
     5  I   -0.776295
     6  I   -0.833073
 Sum of APT charges =  -2.00000
 APT charges with hydrogens summed into heavy atoms:
               1
     1  I   -0.776295
     2  I   -0.833073
     3  Cu   0.609368
     4  Cu   0.609368
     5  I   -0.776295
     6  I   -0.833073
 Electronic spatial extent (au):  <R**2>=           4941.4613
 Charge=             -2.0000 electrons
 Dipole moment (field-independent basis, Debye):
    X=             -0.0000    Y=              0.0000    Z=             -0.0000  Tot=              0.0000
 Quadrupole moment (field-independent basis, Debye-Ang):
   XX=           -146.9236   YY=           -169.2447   ZZ=           -262.1513
   XY=             -0.0000   XZ=              0.0000   YZ=             -0.0000
 Traceless Quadrupole moment (field-independent basis, Debye-Ang):
   XX=             45.8496   YY=             23.5285   ZZ=            -69.3781
   XY=             -0.0000   XZ=              0.0000   YZ=             -0.0000
 Octapole moment (field-independent basis, Debye-Ang**2):
  XXX=             -0.0000  YYY=              0.0000  ZZZ=             -0.0000  XYY=             -0.0000
  XXY=             -0.0000  XXZ=             -0.0000  XZZ=             -0.0000  YZZ=              0.0000
  YYZ=              0.0000  XYZ=             -0.0000
 Hexadecapole moment (field-independent basis, Debye-Ang**3):
 XXXX=           -229.4320 YYYY=          -1873.8470 ZZZZ=          -9320.1801 XXXY=             -0.0000
 XXXZ=              0.0000 YYYX=             -0.0000 YYYZ=              0.0000 ZZZX=              0.0000
 ZZZY=             -0.0000 XXYY=           -340.3419 XXZZ=          -1253.2177 YYZZ=          -1509.9730
 XXYZ=              0.0000 YYXZ=              0.0000 ZZXY=             -0.0000
 N-N= 1.541733286369D+03 E-N=-1.350491732009D+04  KE= 3.730826213601D+03
 Symmetry AG   KE= 1.315427912994D+03
 Symmetry B1G  KE= 5.852492561884D+01
 Symmetry B2G  KE= 2.398343722480D+02
 Symmetry B3G  KE= 2.510510214480D+02
 Symmetry AU   KE= 4.690969739263D+01
 Symmetry B1U  KE= 1.293836846278D+03
 Symmetry B2U  KE= 2.745154326257D+02
 Symmetry B3U  KE= 2.507260049962D+02
  Exact polarizability: 128.479   0.000 198.082  -0.000   0.000 268.549
 Approx polarizability: 229.703   0.000 304.293  -0.000   0.000 341.746
 No NMR shielding tensors so no spin-rotation constants.
 Leave Link  601 at Tue Sep 26 09:44:38 2023, MaxMem= 10737418240 cpu:              14.8 elap:               1.3
 (Enter /trinity/shared/apps/ccipl/gaussian/g16-A03-has-16.9-p/g16/l701.exe)
 ... and contract with generalized density number  0.
 Compute integral second derivatives.
   8 Symmetry operations used in ECPInt.
 ECPInt:  NShTT=    4465 NPrTT=   19564 LenC2=    3861 LenP2D=   11656.
 LDataN:  DoStor=T MaxTD1= 9 Len=  602
 Leave Link  701 at Tue Sep 26 09:44:44 2023, MaxMem= 10737418240 cpu:             105.0 elap:               5.9
 (Enter /trinity/shared/apps/ccipl/gaussian/g16-A03-has-16.9-p/g16/l702.exe)
 L702 exits ... SP integral derivatives will be done elsewhere.
 Leave Link  702 at Tue Sep 26 09:44:45 2023, MaxMem= 10737418240 cpu:               0.9 elap:               0.1
 (Enter /trinity/shared/apps/ccipl/gaussian/g16-A03-has-16.9-p/g16/l703.exe)
 Integral derivatives from FoFJK, PRISM(SPDF).
 Compute integral second derivatives, UseDBF=F ICtDFT=           0.
 Calling FoFJK, ICntrl=    100127 FMM=F ISym2X=1 I1Cent= 0 IOpClX= 0 NMat=1 NMatS=1 NMatT=0.
 FoFJK:  IHMeth= 1 ICntrl=  100127 DoSepK=F KAlg= 0 I1Cent=           0 FoldK=F
 IRaf=         0 NMat=       1 IRICut=       1 DoRegI=T DoRafI=F ISym2E= 1 IDoP0=0 IntGTp=1.
 FoFCou: FMM=F IPFlag=           0 FMFlag=      100000 FMFlg1=         800
         NFxFlg=           0 DoJE=F BraDBF=F KetDBF=F FulRan=T
         wScrn=  0.000000 ICntrl=    100127 IOpCl=  0 I1Cent=           0 NGrid=           0
         NMat0=    1 NMatS0=      1 NMatT0=    0 NMatD0=    1 NMtDS0=    0 NMtDT0=    0
 Petite list used in FoFCou.
 Defaulting to unpruned grid for atomic number  53.
 Defaulting to unpruned grid for atomic number  53.
 Defaulting to unpruned grid for atomic number  53.
 Defaulting to unpruned grid for atomic number  53.
 Defaulting to unpruned grid for atomic number  53.
 Defaulting to unpruned grid for atomic number  53.
 Defaulting to unpruned grid for atomic number  53.
 Defaulting to unpruned grid for atomic number  53.
 Defaulting to unpruned grid for atomic number  53.
 Defaulting to unpruned grid for atomic number  53.
 Defaulting to unpruned grid for atomic number  53.
 Defaulting to unpruned grid for atomic number  53.
 Defaulting to unpruned grid for atomic number  53.
 Defaulting to unpruned grid for atomic number  53.
 Defaulting to unpruned grid for atomic number  53.
 Defaulting to unpruned grid for atomic number  53.
 Defaulting to unpruned grid for atomic number  53.
 Defaulting to unpruned grid for atomic number  53.
 Defaulting to unpruned grid for atomic number  53.
 Defaulting to unpruned grid for atomic number  53.
 Leave Link  703 at Tue Sep 26 09:44:57 2023, MaxMem= 10737418240 cpu:             233.9 elap:              12.1
 (Enter /trinity/shared/apps/ccipl/gaussian/g16-A03-has-16.9-p/g16/l716.exe)
 Dipole        =-2.74214466D-16 2.30150567D-15-2.39434023D-14
 Polarizability= 1.28478959D+02 1.20127530D-15 1.98082073D+02
                -1.49481076D-16 6.01016145D-16 2.68549416D+02
 HyperPolar    = 4.54556893D-12 9.40832678D-13 5.46306691D-12
                 1.01185640D-11-2.96064238D-13-8.48751492D-15
                 3.40523520D-12 3.33623995D-12 1.28639490D-12
                 1.05082751D-11
 Full mass-weighted force constant matrix:
 Low frequencies ---   -0.0055   -0.0029   -0.0026    1.5468    2.0501    3.6250
 Low frequencies ---    6.0481   25.3855   31.4345
 Diagonal vibrational polarizability:
      351.9132560      79.7425738      60.5222066
 Diagonal vibrational hyperpolarizability:
       -0.0000000       0.0000268      -0.0000107
 Harmonic frequencies (cm**-1), IR intensities (KM/Mole), Raman scattering
 activities (A**4/AMU), depolarization ratios for plane and unpolarized
 incident light, reduced masses (AMU), force constants (mDyne/A),
 and normal coordinates:
                           1         2         3         4         5
                          B3U       AG        B2U       B3G       B2G
       Frequencies ---     6.0481   25.3855   31.4345   40.4378   68.7170
    Reduced masses ---   125.9642   99.6501  112.5897   96.3963   65.2363
   Force constants ---     0.0027    0.0378    0.0655    0.0929    0.1815
    IR Intensities ---     0.4633    0.0000    1.1762    0.0000    0.0000
  Raman Activities ---     0.0000    1.2716    0.0000    1.4502    0.4967
    Depol. (Plane) ---     0.0000    0.7079    0.0000    0.7500    0.7500
    Depol. (Unpol) ---     0.0000    0.8290    0.0000    0.8571    0.8571
 Coord Atom Element:
   1     1    53         -0.47466   0.00000  -0.00000  -0.00000   0.00000
   2     1    53          0.00000  -0.30829  -0.34974   0.00000  -0.00000
   3     1    53          0.00000  -0.00000   0.00000   0.41442  -0.00000
   1     2    53          0.51708  -0.00000  -0.00000   0.00000  -0.13427
   2     2    53         -0.00000   0.00000   0.51559   0.29972   0.00000
   3     2    53          0.00000   0.43814  -0.00000  -0.00000   0.00000
   1     3    29         -0.08554  -0.00000   0.00000  -0.00000   0.69424
   2     3    29          0.00000  -0.00000  -0.33444  -0.48828   0.00000
   3     3    29          0.00000   0.46151  -0.00000   0.00000   0.00000
   1     4    29         -0.08554   0.00000  -0.00000   0.00000  -0.69424
   2     4    29          0.00000  -0.00000  -0.33444   0.48828  -0.00000
   3     4    29         -0.00000  -0.46151   0.00000   0.00000   0.00000
   1     5    53         -0.47466   0.00000  -0.00000  -0.00000   0.00000
   2     5    53         -0.00000   0.30829  -0.34974   0.00000   0.00000
   3     5    53          0.00000  -0.00000  -0.00000  -0.41442  -0.00000
   1     6    53          0.51708  -0.00000   0.00000  -0.00000   0.13427
   2     6    53          0.00000   0.00000   0.51559  -0.29972  -0.00000
   3     6    53         -0.00000  -0.43814   0.00000  -0.00000  -0.00000
                           6         7         8         9        10
                          B3U       B1U       AG        B3G       B2U
       Frequencies ---    73.3148   91.3778  106.3473  107.2180  131.5613
    Reduced masses ---    70.2216  123.3143  126.7794   77.2820   75.2016
   Force constants ---     0.2224    0.6067    0.8448    0.5234    0.7669
    IR Intensities ---     2.2144    0.1643    0.0000    0.0000   30.6842
  Raman Activities ---     0.0000    0.0000    2.7692    0.0291    0.0000
    Depol. (Plane) ---     0.0000    0.0000    0.0736    0.7500    0.0000
    Depol. (Unpol) ---     0.0000    0.0000    0.1370    0.8571    0.0000
 Coord Atom Element:
   1     1    53         -0.20056   0.00000   0.00000  -0.00000   0.00000
   2     1    53          0.00000   0.00000   0.57008  -0.00000  -0.30966
   3     1    53          0.00000   0.52552  -0.00000   0.33203  -0.00000
   1     2    53         -0.12950  -0.00000  -0.00000   0.00000   0.00000
   2     2    53         -0.00000  -0.00000   0.00000   0.04402  -0.00557
   3     2    53          0.00000  -0.44250   0.41720   0.00000  -0.00000
   1     3    29          0.66559   0.00000  -0.00000  -0.00000  -0.00000
   2     3    29          0.00000  -0.00000   0.00000   0.62275   0.63567
   3     3    29         -0.00000  -0.16742  -0.03075  -0.00000  -0.00000
   1     4    29          0.66559  -0.00000  -0.00000   0.00000  -0.00000
   2     4    29          0.00000   0.00000   0.00000  -0.62275   0.63567
   3     4    29         -0.00000  -0.16742   0.03075  -0.00000   0.00000
   1     5    53         -0.20056   0.00000   0.00000  -0.00000   0.00000
   2     5    53         -0.00000  -0.00000  -0.57008  -0.00000  -0.30966
   3     5    53          0.00000   0.52552  -0.00000  -0.33203   0.00000
   1     6    53         -0.12950   0.00000  -0.00000  -0.00000   0.00000
   2     6    53          0.00000   0.00000   0.00000  -0.04402  -0.00557
   3     6    53         -0.00000  -0.44250  -0.41720   0.00000   0.00000
                          11        12
                          B1U       AG
       Frequencies ---   171.1134  178.8926
    Reduced masses ---    71.0731   72.8421
   Force constants ---     1.2261    1.3735
    IR Intensities ---    65.2730    0.0000
  Raman Activities ---     0.0000    1.7193
    Depol. (Plane) ---     0.0000    0.6881
    Depol. (Unpol) ---     0.0000    0.8152
 Coord Atom Element:
   1     1    53         -0.00000   0.00000
   2     1    53         -0.00000   0.17550
   3     1    53         -0.09309   0.00000
   1     2    53         -0.00000  -0.00000
   2     2    53         -0.00000  -0.00000
   3     2    53         -0.23449  -0.21605
   1     3    29          0.00000   0.00000
   2     3    29          0.00000   0.00000
   3     3    29          0.66057   0.65002
   1     4    29          0.00000  -0.00000
   2     4    29         -0.00000   0.00000
   3     4    29          0.66057  -0.65002
   1     5    53         -0.00000   0.00000
   2     5    53          0.00000  -0.17550
   3     5    53         -0.09309   0.00000
   1     6    53         -0.00000   0.00000
   2     6    53          0.00000  -0.00000
   3     6    53         -0.23449   0.21605
 Harmonic frequencies (cm**-1), IR intensities (KM/Mole), Raman scattering
 activities (A**4/AMU), depolarization ratios for plane and unpolarized
 incident light, reduced masses (AMU), force constants (mDyne/A),
 and normal coordinates:
                      1                      2                      3
                     B3U                    AG                     B2U
 Frequencies --      6.0481                25.3855                31.4345
 Red. masses --    125.9642                99.6501               112.5897
 Frc consts  --      0.0027                 0.0378                 0.0655
 IR Inten    --      0.4633                 0.0000                 1.1762
 Raman Activ --      0.0000                 1.2716                 0.0000
 Depolar (P) --      0.0000                 0.7079                 0.0000
 Depolar (U) --      0.0000                 0.8290                 0.0000
  Atom  AN      X      Y      Z        X      Y      Z        X      Y      Z
     1  53    -0.47   0.00   0.00     0.00  -0.31  -0.00    -0.00  -0.35   0.00
     2  53     0.52  -0.00   0.00    -0.00   0.00   0.44    -0.00   0.52  -0.00
     3  29    -0.09   0.00   0.00    -0.00  -0.00   0.46     0.00  -0.33  -0.00
     4  29    -0.09   0.00  -0.00     0.00  -0.00  -0.46    -0.00  -0.33   0.00
     5  53    -0.47  -0.00   0.00     0.00   0.31  -0.00    -0.00  -0.35  -0.00
     6  53     0.52   0.00  -0.00    -0.00   0.00  -0.44     0.00   0.52   0.00
                      4                      5                      6
                     B3G                    B2G                    B3U
 Frequencies --     40.4378                68.7170                73.3148
 Red. masses --     96.3963                65.2363                70.2216
 Frc consts  --      0.0929                 0.1815                 0.2224
 IR Inten    --      0.0000                 0.0000                 2.2144
 Raman Activ --      1.4502                 0.4967                 0.0000
 Depolar (P) --      0.7500                 0.7500                 0.0000
 Depolar (U) --      0.8571                 0.8571                 0.0000
  Atom  AN      X      Y      Z        X      Y      Z        X      Y      Z
     1  53    -0.00   0.00   0.41     0.00  -0.00  -0.00    -0.20   0.00   0.00
     2  53     0.00   0.30  -0.00    -0.13   0.00   0.00    -0.13  -0.00   0.00
     3  29    -0.00  -0.49   0.00     0.69   0.00   0.00     0.67   0.00  -0.00
     4  29     0.00   0.49   0.00    -0.69  -0.00   0.00     0.67   0.00  -0.00
     5  53    -0.00   0.00  -0.41     0.00   0.00  -0.00    -0.20  -0.00   0.00
     6  53    -0.00  -0.30  -0.00     0.13  -0.00  -0.00    -0.13   0.00  -0.00
                      7                      8                      9
                     B1U                    AG                     B3G
 Frequencies --     91.3778               106.3473               107.2180
 Red. masses --    123.3143               126.7794                77.2820
 Frc consts  --      0.6067                 0.8448                 0.5234
 IR Inten    --      0.1643                 0.0000                 0.0000
 Raman Activ --      0.0000                 2.7692                 0.0291
 Depolar (P) --      0.0000                 0.0736                 0.7500
 Depolar (U) --      0.0000                 0.1370                 0.8571
  Atom  AN      X      Y      Z        X      Y      Z        X      Y      Z
     1  53     0.00   0.00   0.53     0.00   0.57  -0.00    -0.00  -0.00   0.33
     2  53    -0.00  -0.00  -0.44    -0.00   0.00   0.42     0.00   0.04   0.00
     3  29     0.00  -0.00  -0.17    -0.00   0.00  -0.03    -0.00   0.62  -0.00
     4  29    -0.00   0.00  -0.17    -0.00   0.00   0.03     0.00  -0.62  -0.00
     5  53     0.00  -0.00   0.53     0.00  -0.57  -0.00    -0.00  -0.00  -0.33
     6  53     0.00   0.00  -0.44    -0.00   0.00  -0.42    -0.00  -0.04   0.00
                     10                     11                     12
                     B2U                    B1U                    AG
 Frequencies --    131.5613               171.1134               178.8926
 Red. masses --     75.2016                71.0731                72.8421
 Frc consts  --      0.7669                 1.2261                 1.3735
 IR Inten    --     30.6842                65.2730                 0.0000
 Raman Activ --      0.0000                 0.0000                 1.7193
 Depolar (P) --      0.0000                 0.0000                 0.6881
 Depolar (U) --      0.0000                 0.0000                 0.8152
  Atom  AN      X      Y      Z        X      Y      Z        X      Y      Z
     1  53     0.00  -0.31  -0.00    -0.00  -0.00  -0.09     0.00   0.18   0.00
     2  53     0.00  -0.01  -0.00    -0.00  -0.00  -0.23    -0.00  -0.00  -0.22
     3  29    -0.00   0.64  -0.00     0.00   0.00   0.66     0.00   0.00   0.65
     4  29    -0.00   0.64   0.00     0.00  -0.00   0.66    -0.00   0.00  -0.65
     5  53     0.00  -0.31   0.00    -0.00   0.00  -0.09     0.00  -0.18   0.00
     6  53     0.00  -0.01   0.00    -0.00   0.00  -0.23     0.00  -0.00   0.22

 -------------------
 - Thermochemistry -
 -------------------
 Temperature   298.150 Kelvin.  Pressure   1.00000 Atm.
 Atom     1 has atomic number 53 and mass 126.90040
 Atom     2 has atomic number 53 and mass 126.90040
 Atom     3 has atomic number 29 and mass  62.92960
 Atom     4 has atomic number 29 and mass  62.92960
 Atom     5 has atomic number 53 and mass 126.90040
 Atom     6 has atomic number 53 and mass 126.90040
 Molecular mass:   633.46080 amu.
 Principal axes and moments of inertia in atomic units:
                           1         2         3
     Eigenvalues --  3952.06509********************
           X           -0.00000  -0.00000   1.00000
           Y            0.00000   1.00000   0.00000
           Z            1.00000  -0.00000   0.00000
 This molecule is an asymmetric top.
 Rotational symmetry number  4.
 Warning -- assumption of classical behavior for rotation
           may cause significant error
 Rotational temperatures (Kelvin)      0.02192     0.00500     0.00407
 Rotational constants (GHZ):           0.45666     0.10419     0.08484
 Zero-point vibrational energy       6171.8 (Joules/Mol)
                                    1.47510 (Kcal/Mol)
 Warning -- explicit consideration of  12 degrees of freedom as
           vibrations may cause significant error
 Vibrational temperatures:      8.70    36.52    45.23    58.18    98.87
          (Kelvin)            105.48   131.47   153.01   154.26   189.29
                              246.19   257.39
 
 Zero-point correction=                           0.002351 (Hartree/Particle)
 Thermal correction to Energy=                    0.014387
 Thermal correction to Enthalpy=                  0.015331
 Thermal correction to Gibbs Free Energy=        -0.046657
 Sum of electronic and zero-point Energies=          -4471.827389
 Sum of electronic and thermal Energies=             -4471.815353
 Sum of electronic and thermal Enthalpies=           -4471.814409
 Sum of electronic and thermal Free Energies=        -4471.876396
 
                     E (Thermal)             CV                S
                      KCal/Mol        Cal/Mol-Kelvin    Cal/Mol-Kelvin
 Total                    9.028             29.344            130.464
 Electronic               0.000              0.000              0.000
 Translational            0.889              2.981             45.221
 Rotational               0.889              2.981             32.876
 Vibrational              7.250             23.383             52.367
 Vibration     1          0.593              1.987              9.010
 Vibration     2          0.593              1.985              6.161
 Vibration     3          0.594              1.983              5.737
 Vibration     4          0.594              1.981              5.238
 Vibration     5          0.598              1.969              4.190
 Vibration     6          0.599              1.967              4.062
 Vibration     7          0.602              1.955              3.630
 Vibration     8          0.605              1.944              3.335
 Vibration     9          0.606              1.943              3.319
 Vibration    10          0.612              1.922              2.923
 Vibration    11          0.626              1.878              2.423
 Vibration    12          0.629              1.868              2.340
                       Q            Log10(Q)             Ln(Q)
 Total Bot       0.288774D+22         21.460558         49.414761
 Total V=0       0.348188D+23         22.541814         51.904445
 Vib (Bot)       0.134933D+07          6.130119         14.115120
 Vib (Bot)    1  0.342616D+02          1.534808          3.534026
 Vib (Bot)    2  0.815801D+01          0.911584          2.099001
 Vib (Bot)    3  0.658596D+01          0.818619          1.884940
 Vib (Bot)    4  0.511641D+01          0.708965          1.632453
 Vib (Bot)    5  0.300185D+01          0.477389          1.099230
 Vib (Bot)    6  0.281182D+01          0.448987          1.033831
 Vib (Bot)    7  0.224951D+01          0.352088          0.810712
 Vib (Bot)    8  0.192734D+01          0.284959          0.656143
 Vib (Bot)    9  0.191135D+01          0.281340          0.647809
 Vib (Bot)   10  0.154897D+01          0.190044          0.437592
 Vib (Bot)   11  0.117730D+01          0.070888          0.163226
 Vib (Bot)   12  0.112317D+01          0.050446          0.116156
 Vib (V=0)       0.162695D+08          7.211375         16.604805
 Vib (V=0)    1  0.347653D+02          1.541146          3.548619
 Vib (V=0)    2  0.867332D+01          0.938185          2.160252
 Vib (V=0)    3  0.710491D+01          0.851559          1.960786
 Vib (V=0)    4  0.564078D+01          0.751339          1.730023
 Vib (V=0)    5  0.354321D+01          0.549397          1.265033
 Vib (V=0)    6  0.335593D+01          0.525812          1.210728
 Vib (V=0)    7  0.280441D+01          0.447841          1.031192
 Vib (V=0)    8  0.249114D+01          0.396399          0.912742
 Vib (V=0)    9  0.247567D+01          0.393692          0.906509
 Vib (V=0)   10  0.212767D+01          0.327905          0.755029
 Vib (V=0)   11  0.177908D+01          0.250195          0.576096
 Vib (V=0)   12  0.172944D+01          0.237905          0.547796
 Electronic      0.100000D+01          0.000000          0.000000
 Translational   0.626662D+09          8.797033         20.255918
 Rotational      0.341512D+07          6.533406         15.043722

     ==================================================
      Anharmonic Data: Displacement Vectors Definition
     ==================================================

 Framework definition based on atomic masses: D2H 
 
                                                                he901
                                                             IR Spectrum
 
                                                                                                                                     
     1     1                           1                 1                                                                           
     7     7                           3                 0          9           7   6                   4     3   2                  
     9     1                           2                 6          1           3   9                   0     1   5             6    
 
           X                           X                            X           X                             X                 X    
           X                           X                                                                                             
           X                           X                                                                                             
           X                           X                                                                                             
           X                           X                                                                                             
           X                           X                                                                                             
           X                           X                                                                                             
           X                           X                                                                                             
           X                           X                                                                                             
           X                                                                                                                         
           X                                                                                                                         
           X                                                                                                                         
           X                                                                                                                         
           X                                                                                                                         
           X                                                                                                                         
           X                                                                                                                         
           X                                                                                                                         
           X                                                                                                                         
           X                                                                                                                         
           X                                                                                                                         
 
 
                                                                he901
                                                            Raman Spectrum
 
                                                                                                                                     
     1     1                           1                11                                                                           
     7     7                           3                00          9           7   6                   4     3   2                  
     9     1                           2                76          1           3   9                   0     1   5             6    
 
     X                                                   X                          X                   X         X                  
     X                                                   X                          X                   X         X                  
     X                                                   X                          X                   X         X                  
     X                                                   X                          X                   X         X                  
     X                                                   X                                              X         X                  
     X                                                   X                                              X         X                  
     X                                                   X                                              X         X                  
     X                                                   X                                              X         X                  
     X                                                   X                                              X         X                  
     X                                                   X                                              X                            
     X                                                   X                                                                           
     X                                                   X                                                                           
                                                         X                                                                           
                                                         X                                                                           
                                                         X                                                                           
                                                         X                                                                           
                                                         X                                                                           
                                                         X                                                                           
                                                         X                                                                           
                                                         X                                                                           
 
 ***** Axes restored to original set *****
 -------------------------------------------------------------------
 Center     Atomic                   Forces (Hartrees/Bohr)
 Number     Number              X              Y              Z
 -------------------------------------------------------------------
      1       53          -0.000000000    0.000000176   -0.000000000
      2       53          -0.000000000   -0.000000000    0.000000021
      3       29          -0.000000000   -0.000000000    0.000000044
      4       29           0.000000000    0.000000000   -0.000000044
      5       53          -0.000000000   -0.000000176   -0.000000000
      6       53           0.000000000   -0.000000000   -0.000000021
 -------------------------------------------------------------------
 Cartesian Forces:  Max     0.000000176 RMS     0.000000061
 Z-matrix is all fixed cartesians, so copy forces.
 Force constants in Cartesian coordinates: 
                1             2             3             4             5 
      1  0.194777D-02
      2  0.000000D+00  0.403933D-01
      3  0.000000D+00  0.000000D+00  0.253546D-01
      4  0.116815D-02  0.000000D+00  0.000000D+00  0.162398D-02
      5  0.000000D+00 -0.722467D-03  0.259586D-02  0.000000D+00  0.252690D-02
      6  0.000000D+00  0.224615D-02 -0.411575D-02  0.000000D+00  0.000000D+00
      7 -0.308437D-02  0.000000D+00  0.000000D+00 -0.402840D-02  0.000000D+00
      8  0.000000D+00 -0.133814D-01  0.825516D-02  0.000000D+00 -0.222206D-03
      9  0.000000D+00  0.143957D-01 -0.945587D-02  0.000000D+00  0.000000D+00
     10 -0.308437D-02  0.000000D+00  0.000000D+00  0.327934D-04  0.000000D+00
     11  0.000000D+00 -0.133814D-01 -0.825516D-02  0.000000D+00 -0.118515D-02
     12  0.000000D+00 -0.143957D-01 -0.945587D-02  0.000000D+00  0.000000D+00
     13  0.188467D-02  0.000000D+00  0.000000D+00  0.116815D-02  0.000000D+00
     14  0.000000D+00 -0.121856D-01  0.000000D+00  0.000000D+00 -0.722467D-03
     15  0.000000D+00  0.000000D+00  0.178862D-02  0.000000D+00 -0.259586D-02
     16  0.116815D-02  0.000000D+00  0.000000D+00  0.353304D-04  0.000000D+00
     17  0.000000D+00 -0.722467D-03 -0.259586D-02  0.000000D+00  0.325383D-03
     18  0.000000D+00 -0.224615D-02 -0.411575D-02  0.000000D+00  0.000000D+00
                6             7             8             9            10 
      6  0.446012D-01
      7  0.000000D+00  0.103138D-01
      8  0.000000D+00  0.000000D+00  0.233365D-01
      9 -0.363655D-01  0.000000D+00  0.000000D+00  0.552635D-01
[...]
 0027809,0.,0.,-0.00027809,0.,0.,0.00063819,0.,0.,0.,0.,0.00005549,-0.0
 0006163,0.,0.00325914,0.00348898,0.,0.00325930,-0.00348913,0.,-0.00662
 942,0.,0.,0.,0.,0.00007698,0.00012590,0.,0.00340422,0.00263212,0.,-0.0
 0340436,0.00263222,0.,0.00000014,-0.00551617,0.00004101,0.,0.,0.,0.,0.
 ,0.,0.,0.,0.,0.,0.,-0.00004101,0.,0.,0.,0.,-0.00005549,-0.00007698,0.,
 0.,-0.00000952,0.,0.,-0.00002878,0.,0.,-0.00058974,0.,0.00005549,-0.00
 007698,0.,0.,0.,0.00006162,-0.00012590,0.,0.00000952,0.,0.,-0.00000655
 ,-0.00000002,0.,-0.00090822,0.00000037,0.,0.00006163,0.00012592,0.,0.0
 0078200,-0.00000038,0.,0.,0.00000022,0.,0.00423205,0.00000008,0.000025
 33,0.,0.,-0.00071791,0.,-0.00006361,0.00008128,0.,-0.00073548,0.,0.000
 03716,-0.00006006,0.,0.,0.01043394,-0.00022692,0.,0.,0.00066992,0.,0.,
 -0.00021880,0.,0.00294085,-0.00216551,0.,0.00085913,0.,0.,-0.00673728,
 0.,-0.00218482,0.00088552,0.,0.,-0.01034298,0.,0.00000002,0.00860116,0
 .00022692,0.,0.,-0.00000268,0.,0.,0.,0.,0.,0.00021876,0.,-0.00294107,-
 0.00216567,0.,0.00000358,0.,0.,0.,0.,0.,0.00673719,0.,-0.00218498,-0.0
 0088560,0.,0.,0.00002915,0.,0.,-0.00000005,0.,0.00000042,-0.00860156,0
 .,0.,0.,0.00002533,0.,0.,-0.00022692,0.,0.,0.00022692,0.,0.,0.,0.,0.,-
 0.00006343,0.,-0.00006361,-0.00003716,0.,0.00294088,0.00218481,0.,-0.0
 0294058,0.00218455,0.,-0.00000029,0.,0.00006343,0.,0.,-0.00008128,-0.0
 0006006,0.,0.00216549,0.00088545,0.,0.00216524,-0.00088525,0.,-0.00423
 161,-0.00000020,-0.00002533,0.,0.,0.,0.,0.,0.00000268,0.,0.,-0.0006699
 2,0.,0.,-0.00002533,0.,0.,0.00071791,0.,0.00006361,0.00008128,0.,0.,0.
 ,0.,-0.00000358,0.,0.,-0.00085913,0.,0.,0.00006362,-0.00008128,0.,0.00
 073548,0.,0.00003716,0.00006006,0.,0.,0.,0.,0.,-0.00002915,0.,0.,0.010
 34330,0.,-0.00003716,0.00006006,0.,0.,-0.01043426,0.00072409,0.,-0.006
 85236,0.,-0.00000007,-0.00256130,0.00002789,0.,0.,-0.00071961,0.,-0.00
 003655,0.00009681,0.,-0.00072277,0.,0.00002974,-0.00003901,0.,0.,0.009
 90796,-0.00034087,0.,0.,0.00066713,0.,0.,-0.00003281,0.,0.00308871,-0.
 00258259,0.,0.00082954,0.,0.,-0.00708741,0.,-0.00277583,0.00125770,0.,
 0.,-0.00979758,0.,0.00000023,0.00740419,-0.00034087,0.,0.,-0.00000122,
 0.,0.,0.00004867,0.,0.,-0.00003283,0.,0.00308876,0.00258266,0.,-0.0000
 4636,0.,0.,0.00012710,0.,0.,-0.00708780,0.,0.00277590,0.00125778,0.,0.
 ,-0.00010399,0.,0.,-0.00001785,0.,-0.00000002,0.00740436,-0.00009813,0
 .,0.,0.00002789,0.,0.,-0.00034087,0.,0.,-0.00034087,0.,0.,0.00072409,0
 .,0.00074798,0.,0.,-0.00003655,-0.00002974,0.,0.00308843,0.00277560,0.
 ,0.00308878,-0.00277588,0.,-0.00685210,0.,0.,0.00012384,0.,-0.00009681
 ,-0.00003901,0.,0.00258236,0.00125752,0.,-0.00258264,0.00125775,0.,0.0
 0000028,-0.00256109,0.00002789,0.,0.,-0.00000208,0.,0.,-0.00000122,0.,
 0.,0.00066713,0.,0.,0.00002789,0.,0.,-0.00071961,0.,-0.00003655,-0.000
 09681,0.,0.00001269,0.,0.,-0.00004636,0.,0.,0.00082954,0.,0.,-0.000036
 55,0.00009681,0.,-0.00072277,0.,-0.00002974,-0.00003901,0.,0.,0.000071
 63,0.,0.,-0.00010399,0.,0.,-0.00979804,0.,0.00002973,-0.00003901,0.,0.
 ,0.00990842,0.00002352,0.,0.00006301,0.,0.00004478,-0.00001458,0.00000
 606,0.,0.,0.00002044,0.,-0.00002225,0.00002380,0.,0.00002594,0.,0.0000
 1887,-0.00004513,0.,-0.00000048,-0.00011173,-0.00001582,0.,0.,-0.00003
 003,0.,0.,0.00005545,0.,0.00009759,-0.00010101,0.,0.00002499,0.0000025
 7,0.,-0.00027308,0.,0.00000222,0.00007834,0.,0.00000052,0.00021526,0.,
 -0.00000838,-0.00044741,-0.00001599,0.,0.,0.00000082,0.,0.,0.00000634,
 0.,0.,0.00005544,0.,0.00003432,0.00005680,0.,-0.00000951,0.00000043,0.
 ,0.00006508,-0.00000062,0.,-0.00014203,0.,-0.00004701,0.00004491,0.,-0
 .00000047,-0.00000726,0.,0.00000226,0.00008174,0.,0.00000254,-0.000386
 85,-0.00000289,0.,0.,0.00000554,0.,0.,-0.00001473,0.,0.,-0.00001490,0.
 ,0.,0.00002259,0.,-0.00015031,-0.00000078,0.,-0.00002104,-0.00002094,0
 .,0.00009879,0.00000568,0.,0.00002834,0.00004340,0.,0.00006384,0.,0.00
 000075,-0.00001753,0.,-0.00002381,-0.00004574,0.,0.00010720,0.00008248
 ,0.,-0.00005735,0.00004519,0.,-0.00005037,-0.00001796,0.00000600,0.,0.
 ,-0.00000125,0.,0.,0.00000082,0.,0.,-0.00003004,0.,0.,0.00000549,0.,0.
 ,0.00002047,0.,-0.00002229,-0.00002384,0.,0.00000173,-0.00000025,0.,-0
 .00000933,0.00000035,0.,0.00002494,-0.00000049,0.,-0.00002124,0.000023
 84,0.,0.00002600,0.,-0.00001907,-0.00004592,0.,0.00000039,-0.00000550,
 0.,-0.00000264,-0.00000756,0.,-0.00000179,0.00022286,0.,0.00002246,-0.
 00004549,0.,0.00000045,-0.00011903,0.00000054,0.,0.00004067,0.,-0.0000
 2491,-0.00006460,-0.00000096,0.,0.,-0.00000134,0.,0.00000487,-0.000004
 47,0.,-0.00000044,0.,-0.00000958,0.00001171,0.,-0.00000048,-0.00005994
 ,-0.00000215,0.,0.,0.00000464,0.,0.,0.00000535,0.,-0.00003028,-0.00000
 645,0.,-0.00001026,0.00000258,0.,0.00005585,0.,-0.00004419,0.00000681,
 0.,0.00000053,0.00003765,0.,-0.00002437,0.00001371,-0.00000232,0.,0.,0
 .00000112,0.,0.,-0.00000588,0.,0.,0.00000527,0.,-0.00000046,0.00003197
 ,0.,-0.00000036,0.00000043,0.,0.00000502,-0.00000060,0.,0.00004934,0.,
 0.00006913,0.00002749,0.,-0.00000047,-0.00000150,0.,0.00000228,-0.0000
 8404,0.,-0.00002388,-0.00009051,0.00000674,0.,0.,-0.00000148,0.,0.,-0.
 00000104,0.,0.,-0.00000124,0.,0.,-0.00000042,0.,-0.00001957,-0.0000007
 9,0.,0.00000607,0.00000752,0.,-0.00001554,0.00006806,0.,-0.00004296,-0
 .00004634,0.,0.00006445,0.,0.00000075,0.00000782,0.,0.00000445,0.00001
 109,0.,0.00002861,0.00002711,0.,-0.00000611,0.00000867,0.,-0.00002303,
 -0.00006506,-0.00000101,0.,0.,-0.00000040,0.,0.,0.00000111,0.,0.,0.000
 00465,0.,0.,-0.00000153,0.,0.,-0.00000133,0.,0.00000481,0.00000440,0.,
 -0.00000005,-0.00000025,0.,-0.00000020,0.00000035,0.,-0.00001027,-0.00
 000049,0.,0.00000586,-0.00000440,0.,-0.00000036,0.,0.00000934,0.000010
 87,0.,0.00000039,0.00000083,0.,-0.00000265,-0.00000181,0.,-0.00000179,
 0.00014078,0.,-0.00000596,0.00001131,0.,0.00000046,-0.00016262,0.00000
 054,0.,0.00008110,0.,-0.00000989,0.00006354,-0.00000199,0.,0.,0.000002
 84,0.,0.00001289,-0.00001362,0.,0.00001276,0.,-0.00001096,0.00001879,0
 .,-0.00000046,-0.00035539,0.00000121,0.,0.,0.00000340,0.,0.,-0.0000065
 6,0.,-0.00008712,0.00006794,0.,-0.00004179,0.00000254,0.,0.00022575,0.
 ,0.00002827,-0.00005803,0.,0.00000050,0.00031933,0.,-0.00001116,-0.000
 16033,0.00000105,0.,0.,0.00000013,0.,0.,0.00000137,0.,0.,-0.00001023,0
 .,-0.00007314,-0.00005747,0.,0.00000269,0.00000045,0.,-0.00001448,-0.0
 0000060,0.,0.00023569,0.,-0.00001840,-0.00005172,0.,-0.00000046,-0.000
 00066,0.,0.00000224,-0.00004651,0.,-0.00002482,-0.00015502,0.00000207,
 0.,0.,-0.00000251,0.,0.,0.00000232,0.,0.,0.00000213,0.,0.,-0.00000037,
 0.,0.00005345,-0.00000078,0.,0.00001410,0.00000891,0.,-0.00008177,-0.0
 0001759,0.,-0.00011438,0.00004217,0.,0.00011308,0.,0.00000074,0.000009
 47,0.,0.00001360,0.00001821,0.,-0.00005892,-0.00005272,0.,0.00008425,-
 0.00007404,0.,-0.00002586,0.00008160,-0.00000204,0.,0.,-0.00000027,0.,
 0.,0.00000013,0.,0.,0.00000339,0.,0.,-0.00000256,0.,0.,0.00000281,0.,0
 .00001284,0.00001356,0.,-0.00000074,-0.00000026,0.,0.00000285,0.000000
 34,0.,-0.00004182,-0.00000051,0.,0.00001388,-0.00001355,0.,0.00001276,
 0.,0.00001080,0.00001804,0.,0.00000038,-0.00000039,0.,-0.00000264,-0.0
 0000097,0.,-0.00000181,0.00032396,0.,-0.00000740,0.00001844,0.,0.00000
 046,-0.00035973,0.00000195,0.,-0.00010001,0.,-0.00001621,0.00005404,-0
 .00000024,0.,0.,0.00000673,0.,0.00001096,-0.00000729,0.,0.00002356,0.,
 -0.00000105,0.00000981,0.,-0.00000059,-0.00027660,0.00000037,0.,0.,-0.
 00000405,0.,0.,-0.00000296,0.,0.00001113,0.00000670,0.,-0.00004735,0.0
 0000227,0.,0.00001443,0.,-0.00001702,-0.00004421,0.,0.00000018,0.00025
 983,0.,-0.00001396,-0.00013292,0.00000019,0.,0.,0.00000042,0.,0.,0.000
 00275,0.,0.,-0.00000371,0.,0.00003677,0.00001005,0.,0.,0.00000059,0.,-
 0.00000207,0.00000096,0.,0.00004610,0.,0.00003181,-0.00003319,0.,-0.00
 000002,-0.00000288,0.,-0.00000029,-0.00004603,0.,-0.00004686,-0.000222
 59,-0.00000112,0.,0.,-0.00000076,0.,0.,0.00000149,0.,0.,0.00000132,0.,
 0.,0.00000093,0.,0.00003031,-0.00000074,0.,0.00001267,-0.00000086,0.,0
 .00002495,0.00002976,0.,-0.00003330,0.00001536,0.,-0.00004885,0.,0.000
 00065,0.00000404,0.,0.00000726,0.00000963,0.,0.00000689,-0.00003570,0.
 ,0.00003685,-0.00006956,0.,-0.00004423,0.00008306,-0.00000029,0.,0.,-0
 .00000053,0.,0.,0.00000042,0.,0.,-0.00000406,0.,0.,-0.00000081,0.,0.,0
 .00000675,0.,0.00001087,0.00000724,0.,0.00000002,-0.00000015,0.,0.0000
 0011,-0.00000014,0.,-0.00004742,0.00000022,0.,0.00001254,-0.00000717,0
 .,0.00002363,0.,0.00000236,0.00000963,0.,0.00000040,0.00000007,0.,-0.0
 0000160,-0.00000037,0.,-0.00000158,0.00037475,0.,0.00000016,0.00000945
 ,0.,0.00000006,-0.00039420,0.00001697,0.,-0.00005337,0.,-0.00002289,-0
 .00001969,-0.00000628,0.,0.,0.00001873,0.,0.00001693,-0.00001821,0.,-0
 .00000107,0.,-0.00001387,0.00003187,0.,-0.00000047,-0.00055604,-0.0000
 0488,0.,0.,-0.00000181,0.,0.,0.00000452,0.,-0.00004943,0.00003649,0.,-
 0.00003682,0.00000251,0.,0.00016574,0.,-0.00003983,-0.00004129,0.,0.00
 000047,0.00049267,0.,-0.00000268,-0.00031477,-0.00000502,0.,0.,-0.0000
 0271,0.,0.,0.00000923,0.,0.,0.00000345,0.,-0.00002246,-0.00001300,0.,0
 .00000343,0.00000037,0.,-0.00002219,-0.00000038,0.,0.00010754,0.,0.000
 06267,-0.00001861,0.,-0.00000042,-0.00000152,0.,0.00000202,-0.00009246
 ,0.,0.00000234,-0.00018351,0.00000649,0.,0.,-0.00000681,0.,0.,-0.00000
 378,0.,0.,-0.00000396,0.,0.,0.00001600,0.,0.00009152,-0.00000080,0.,0.
 00001819,0.00001190,0.,-0.00005549,0.00004189,0.,-0.00002866,-0.000065
 96,0.,-0.00004519,0.,0.00000077,0.00001674,0.,0.00001819,0.00003127,0.
 ,-0.00003576,-0.00004044,0.,0.00001242,-0.00001829,0.,0.00002278,-0.00
 001985,-0.00000637,0.,0.,0.00000043,0.,0.,-0.00000269,0.,0.,-0.0000019
 0,0.,0.,-0.00000685,0.,0.,0.00001885,0.,0.00001689,0.00001815,0.,-0.00
 000082,-0.00000024,0.,0.00000358,0.00000029,0.,-0.00003689,-0.00000043
 ,0.,0.00001799,-0.00001815,0.,-0.00000098,0.,0.00001368,0.00003112,0.,
 0.00000038,0.00000160,0.,-0.00000259,-0.00000188,0.,-0.00000175,0.0003
 1517,0.,-0.00001037,0.00003154,0.,0.00000044,-0.00037819,0.00002908,0.
 ,-0.00017832,0.,0.00001344,-0.00007381,-0.00001206,0.,0.,0.00000849,0.
 ,0.00003303,-0.00003467,0.,-0.00001627,0.,-0.00002622,0.00006252,0.,-0
 .00000049,-0.00044600,-0.00000556,0.,0.,0.00001710,0.,0.,-0.00000885,0
 .,-0.00003359,0.00002707,0.,-0.00005755,0.00000259,0.,0.00017891,0.,-0
 .00011191,-0.00003441,0.,0.00000052,0.00031257,0.,-0.00000283,-0.00016
 873,-0.00000572,0.,0.,-0.00000038,0.,0.,0.00000001,0.,0.,-0.00000632,0
 .,-0.00004578,-0.00003989,0.,0.00000830,0.00000047,0.,-0.00005489,-0.0
 0000065,0.,0.00020325,0.,0.00009840,-0.00004905,0.,-0.00000046,0.00000
 393,0.,0.00000223,-0.00007872,0.,0.00000251,-0.00018619,0.00000725,0.,
 0.,-0.00001258,0.,0.,-0.00000446,0.,0.,-0.00000464,0.,0.,0.00002813,0.
 ,0.00019174,-0.00000081,0.,0.00003425,0.00002412,0.,-0.00003955,0.0001
 1429,0.,-0.00005174,-0.00010197,0.,-0.00017037,0.,0.00000077,0.0000330
 2,0.,0.00003467,0.00006193,0.,-0.00002645,-0.00003361,0.,0.00003933,-0
 .00004875,0.,-0.00001345,-0.00007383,-0.00001213,0.,0.,0.00000099,0.,0
 .,-0.00000041,0.,0.,0.00001707,0.,0.,-0.00001263,0.,0.,0.00000864,0.,0
 .00003298,0.00003461,0.,-0.00000188,-0.00000026,0.,0.00000845,0.000000
 36,0.,-0.00005761,-0.00000047,0.,0.00003403,-0.00003461,0.,-0.00001615
 ,0.,0.00002607,0.00006182,0.,0.00000038,0.00000490,0.,-0.00000261,0.00
 000333,0.,-0.00000176,0.00035948,0.,-0.00002272,0.00006225,0.,0.000000
 44,-0.00049238,-0.00007331,0.,0.00034257,0.,-0.00003884,-0.00009038,0.
 00000149,0.,0.,-0.00002776,0.,0.00000139,0.,0.,-0.00002132,0.,0.000005
 72,-0.00000233,0.,-0.00000034,-0.00000755,0.00003436,0.,0.,0.00002709,
 0.,0.,-0.00010177,0.,-0.00021307,0.00011216,0.,0.00001672,0.00000208,0
 .,0.00036713,0.,0.00007700,0.00002926,0.,0.00000030,0.00001384,0.,-0.0
 0005760,-0.00007091,0.00003418,0.,0.,0.00000028,0.,0.,0.00000156,0.,0.
 ,-0.00010249,0.,-0.00016385,-0.00007272,0.,0.00000084,-0.00000001,0.,-
 0.00002260,0.00000007,0.,0.00035613,0.,-0.00003804,0.00006185,0.,-0.00
 000019,-0.00000119,0.,0.00000132,-0.00004237,0.,-0.00001042,-0.0000400
 0,0.00000270,0.,0.,0.00000097,0.,0.,0.00003546,0.,0.,0.00003526,0.,0.,
 -0.00007422,0.,0.00003163,-0.00000080,0.,0.00000214,-0.00000708,0.,-0.
 00014692,-0.00002020,0.,-0.00018745,0.00004783,0.,0.00029706,0.,0.0000
 0073,0.00000475,0.,0.00000002,-0.00000288,0.,-0.00005600,0.00007133,0.
 ,0.00008428,0.00005160,0.,-0.00002880,-0.00012113,0.00000143,0.,0.,-0.
 00000048,0.,0.,0.00000027,0.,0.,0.00002711,0.,0.,0.00000091,0.,0.,-0.0
 0002775,0.,0.00000138,-0.00000006,0.,0.00000009,-0.00000015,0.,0.00000
 097,0.00000018,0.,0.00001663,-0.00000027,0.,0.00000193,0.00000003,0.,-
 0.00002122,0.,-0.00000603,-0.00000307,0.,0.00000016,0.,0.,-0.00000197,
 -0.00000156,0.,-0.00000120,-0.00003191,0.,0.00000851,-0.00000269,0.,0.
 00000032,0.00003858,-0.00008081,0.,0.00015158,0.,0.00003232,0.00022279
 ,0.00000210,0.,0.,-0.00004801,0.,0.00000292,-0.00000042,0.,-0.00004781
 ,0.,-0.00000428,0.00000188,0.,-0.00000048,0.00015268,0.00003263,0.,0.,
 0.00004628,0.,0.,-0.00011655,0.,-0.00002859,0.00011197,0.,0.00003855,0
 .00000256,0.,0.00012264,0.,0.00008759,-0.00010753,0.,0.00000050,-0.000
 14652,0.,0.00005889,0.00049699,0.00003243,0.,0.,0.00000047,0.,0.,0.000
 00344,0.,0.,-0.00011547,0.,-0.00006969,-0.00014368,0.,0.00000206,0.000
 00043,0.,-0.00001448,-0.00000063,0.,0.00008981,0.,-0.00011996,-0.00012
 955,0.,-0.00000047,-0.00000862,0.,0.00000228,-0.00008223,0.,0.00003101
 ,0.00053338,0.00001249,0.,0.,0.00000158,0.,0.,0.00003371,0.,0.,0.00003
 354,0.,0.,-0.00008180,0.,-0.00005899,-0.00000080,0.,0.00000414,0.00000
 223,0.,-0.00011586,-0.00014693,0.,-0.00004483,0.00008785,0.,0.00020995
 ,0.,0.00000077,0.00001143,0.,0.00000041,0.00000127,0.,-0.00017305,-0.0
 0015287,0.,0.00011467,-0.00010575,0.,0.00005781,0.00024534,0.00000205,
 0.,0.,-0.00000084,0.,0.,0.00000047,0.,0.,0.00004626,0.,0.,0.00000152,0
 .,0.,-0.00004799,0.,0.00000286,0.00000035,0.,0.00000001,-0.00000025,0.
 ,0.00000222,0.00000034,0.,0.00003849,-0.00000048,0.,0.00000391,-0.0000
 0035,0.,-0.00004773,0.,0.00000411,0.00000112,0.,0.00000039,-0.00000083
 ,0.,-0.00000265,-0.00000876,0.,-0.00000180,-0.00020352,0.,-0.00000071,
 0.00000153,0.,0.00000045,0.00020975,-0.00028638,0.,0.00062484,0.,0.000
 00984,0.00043713,0.00000295,0.,0.,0.00000421,0.,0.00000773,-0.00000499
 ,0.,0.00002614,0.,-0.00000289,0.00000487,0.,-0.00000045,-0.00022200,0.
 00014258,0.,0.,-0.00000776,0.,0.,-0.00027666,0.,-0.00032832,0.00044283
 ,0.,-0.00004954,0.00000239,0.,0.00079347,0.,0.00037690,-0.00021334,0.,
 0.00000039,0.00021487,0.,0.00000812,0.00023507,0.00014244,0.,0.,0.0000
 0021,0.,0.,-0.00000068,0.,0.,-0.00027747,0.,-0.00034457,-0.00045208,0.
 ,0.00000736,0.00000028,0.,-0.00006863,-0.00000019,0.,0.00085408,0.,-0.
 00038681,-0.00021997,0.,-0.00000034,-0.00000155,0.,0.00000180,-0.00001
 312,0.,-0.00003636,0.00020629,-0.00000365,0.,0.,0.00000243,0.,0.,0.000
 14369,0.,0.,0.00014352,0.,0.,-0.00028732,0.,0.00003269,-0.00000079,0.,
 0.00000904,0.00000110,0.,-0.00035107,-0.00038570,0.,-0.00039967,0.0004
 2233,0.,0.00069852,0.,0.00000075,-0.00001272,0.,0.00000500,0.00000429,
 0.,-0.00045267,-0.00021961,0.,0.00049002,-0.00024933,0.,-0.00003789,0.
 00047377,0.00000290,0.,0.,-0.00000049,0.,0.,0.00000021,0.,0.,-0.000007
 80,0.,0.,0.00000238,0.,0.,0.00000431,0.,0.00000769,0.00000494,0.,-0.00
 000087,-0.00000022,0.,0.00000751,0.00000025,0.,-0.00004958,-0.00000039
 ,0.,0.00000881,-0.00000494,0.,0.00002623,0.,0.00000275,0.00000413,0.,0
 .00000032,-0.00000061,0.,-0.00000247,-0.00000193,0.,-0.00000166,0.0002
 8016,0.,0.00000042,0.00000453,0.,0.00000043,-0.00028697,-0.00031212,0.
 ,0.00012786,0.,0.00000515,0.00076505,0.00000234,0.,0.,0.00001403,0.,0.
 00001600,-0.00000624,0.,0.00003699,0.,-0.00001162,0.00001594,0.,-0.000
 00070,-0.00032677,0.00015450,0.,0.,-0.00001700,0.,0.,-0.00030047,0.,-0
 .00010512,0.00044428,0.,-0.00007372,0.00000256,0.,0.00034030,0.,0.0003
 7324,-0.00038872,0.,0.00000058,0.00030908,0.,0.00001194,0.00053129,0.0
 0015432,0.,0.,0.00000115,0.,0.,0.00000305,0.,0.,-0.00030034,0.,-0.0001
 1290,-0.00044973,0.,0.00000321,0.00000126,0.,-0.00003239,-0.00000081,0
 .,0.00035785,0.,-0.00037954,-0.00039229,0.,-0.00000051,-0.00001323,0.,
 0.00000092,-0.00004198,0.,-0.00001711,0.00060478,-0.00000044,0.,0.,0.0
 0000182,0.,0.,0.00015555,0.,0.,0.00015537,0.,0.,-0.00031297,0.,0.00005
 834,0.00000012,0.,0.00001730,0.00000883,0.,-0.00013133,-0.00038531,0.,
 -0.00014352,0.00039661,0.,0.00018042,0.,-0.00000009,-0.00001638,0.,0.0
 0000624,0.00001626,0.,-0.00045831,-0.00040030,0.,0.00046843,-0.0004064
 5,0.,-0.00001001,0.00079217,0.00000228,0.,0.,-0.00000074,0.,0.,0.00000
 114,0.,0.,-0.00001701,0.,0.,0.00000176,0.,0.,0.00001403,0.,0.00001587,
 0.00000617,0.,0.00000010,-0.00000013,0.,0.00000327,0.00000013,0.,-0.00
 007366,-0.00000014,0.,0.00001713,-0.00000600,0.,0.00003705,0.,0.000013
 40,0.00001649,0.,0.00000058,-0.00000137,0.,-0.00000139,-0.00001067,0.,
 -0.00000203,0.00024553,0.,-0.00001080,0.00001567,0.,0.00000003,-0.0002
 6633,-0.00013995,0.,0.00061044,0.,-0.00001656,-0.00032668,-0.00000066,
 0.,0.,-0.00031152,0.,0.00000516,-0.00000297,0.,-0.00031430,0.,-0.00000
 434,0.00000716,0.,-0.00000028,0.00153910,0.00006647,0.,0.,0.00031465,0
 .,0.,-0.00044694,0.,-0.00031748,0.00010454,0.,0.00030262,0.00000187,0.
 ,0.00039078,0.,0.00007079,0.00014975,0.,0.00000021,-0.00155312,0.,0.00
 002032,0.00129473,0.00006631,0.,0.,0.00000098,0.,0.,-0.00000258,0.,0.,
 -0.00044646,0.,-0.00028944,-0.00008738,0.,-0.00000031,-0.00000019,0.,-
 0.00002643,0.00000036,0.,0.00030938,0.,-0.00005401,0.00016099,0.,-0.00
 000007,-0.00001162,0.,0.00000093,-0.00001365,0.,0.00000315,0.00125287,
 0.00000949,0.,0.,-0.00000118,0.,0.,0.00006759,0.,0.,0.00006737,0.,0.,-
 0.00014098,0.,-0.00001376,-0.00000080,0.,0.00000568,0.00000326,0.,-0.0
 0034658,-0.00009203,0.,-0.00029475,0.00005042,0.,0.00064225,0.,0.00000
 073,0.00000254,0.,0.00000298,0.00000661,0.,-0.00012601,0.00013409,0.,0
 .00008501,0.00016568,0.,0.00004049,-0.00031477,-0.00000072,0.,0.,-0.00
 000070,0.,0.,0.00000099,0.,0.,0.00031466,0.,0.,-0.00000124,0.,0.,-0.00
 031155,0.,0.00000518,0.00000291,0.,0.00000101,-0.00000011,0.,-0.000000
 17,0.00000012,0.,0.00030252,-0.00000019,0.,0.00000548,-0.00000294,0.,-
 0.00031428,0.,0.00000394,0.00000639,0.,0.00000005,0.00001173,0.,-0.000
 00165,-0.00001197,0.,-0.00000095,-0.00155444,0.,-0.00000187,0.00000680
 ,0.,0.00000027,0.00154082,-0.00020340,0.,0.00070599,0.,0.00003584,-0.0
 0019010,-0.00000069,0.,0.,-0.00028295,0.,0.00000361,-0.00000394,0.,-0.
 00028598,0.,-0.00000500,0.00001061,0.,-0.00000049,0.00140705,0.0000981
 5,0.,0.,0.00028646,0.,0.,-0.00047837,0.,-0.00031605,0.00016933,0.,0.00
 027581,0.00000256,0.,0.00039803,0.,0.00014659,0.00009202,0.,0.00000051
 ,-0.00143356,0.,0.00000594,0.00130481,0.00009797,0.,0.,0.00000023,0.,0
 .,-0.00000634,0.,0.,-0.00047782,0.,-0.00036105,-0.00020460,0.,0.000000
 80,0.00000043,0.,-0.00002224,-0.00000062,0.,0.00043654,0.,-0.00018251,
 0.00006594,0.,-0.00000047,0.00000441,0.,0.00000226,-0.00005348,0.,0.00
 002991,0.00134515,0.00000958,0.,0.,-0.00000121,0.,0.,0.00009925,0.,0.,
 0.00009906,0.,0.,-0.00020436,0.,-0.00003602,-0.00000077,0.,0.00000484,
 0.00000295,0.,-0.00033298,-0.00015301,0.,-0.00033240,0.00015152,0.,0.0
 0069028,0.,0.00000075,0.00001176,0.,0.00000394,0.00001003,0.,-0.000177
 46,0.00008475,0.,0.00017667,0.00008602,0.,0.00000023,-0.00020193,-0.00
 000074,0.,0.,-0.00000024,0.,0.,0.00000026,0.,0.,0.00028648,0.,0.,-0.00
 000126,0.,0.,-0.00028297,0.,0.00000357,0.00000389,0.,0.00000081,-0.000
 00025,0.,0.00000098,0.00000035,0.,0.00027576,-0.00000048,0.,0.00000461
 ,-0.00000388,0.,-0.00028591,0.,0.00000486,0.00000989,0.,0.00000039,0.0
 0000135,0.,-0.00000264,0.00000401,0.,-0.00000179,-0.00144952,0.,-0.000
 00147,0.00001030,0.,0.00000044,0.00142335\\@


 BLACK HOLES SUCK.
 Job cpu time:       0 days 21 hours  7 minutes 34.8 seconds.
 Elapsed time:       0 days  1 hours  8 minutes 49.9 seconds.
 File lengths (MBytes):  RWF=    176 Int=      0 D2E=      0 Chk=     50 Scr=      1
 Normal termination of Gaussian 16 at Tue Sep 26 10:52:43 2023.
